;
;	File 'topol_DNA_chain_A.itp' was generated
;	By user: wang (1000)
;	On host: 123
;	At date: Wed Jan  7 11:45:39 2026
;
;	This is a include topology file
;
;	Created by:
;	                    :-) GROMACS - gmx pdb2gmx, 2025.3 (-:
;	
;	Executable:   /usr/local/gromacs-2025.3-gpu/bin/gmx_mpi
;	Data prefix:  /usr/local/gromacs-2025.3-gpu
;	Working dir:  /home/wang/核小体/H3R26C/RUN2/md
;	Command line:
;	  gmx_mpi pdb2gmx -f H3_TAIL_CLEAN.pdb -o TAIL_processed.gro -ignh
;	Force field was read from the standard GROMACS share directory.
;

[ moleculetype ]
; Name            nrexcl
DNA_chain_A         3

[ atoms ]
;   nr       type  resnr residue  atom   cgnr     charge       mass  typeB    chargeB      massB
; residue   1 DC  rtp DC5  q -0.3
     1         OH      1     DC    O5'      1    -0.6318         13.984000
     2         HO      1     DC    H5T      2     0.4422      3.024000
     3         CJ      1     DC    C5'      3    -0.0069      7.978000
     4         H1      1     DC   H5'1      4     0.0754      3.024000
     5         H1      1     DC   H5'2      5     0.0754      3.024000
     6         CT      1     DC    C4'      6     0.1629      9.994000
     7         H1      1     DC    H4'      7     0.1176      3.024000
     8         OS      1     DC    O4'      8    -0.3691         16.000000
     9         CT      1     DC    C1'      9    -0.0116      9.994000
    10         H2      1     DC    H1'     10     0.1963      3.024000
    11         N*      1     DC     N1     11    -0.0339      14.010000
    12         C1      1     DC     C6     12    -0.0183      9.994000
    13         H4      1     DC     H6     13     0.2293      3.024000
    14         C1      1     DC     C5     14    -0.5222      9.994000
    15         HA      1     DC     H5     15     0.1863      3.024000
    16         CA      1     DC     C4     16     0.8439      12.010000
    17         N2      1     DC     N4     17    -0.9773      9.978000
    18          H      1     DC    H41     18     0.4314      3.024000
    19          H      1     DC    H42     19     0.4314      3.024000
    20         NC      1     DC     N3     20    -0.7748      14.010000
    21          C      1     DC     C2     21     0.7959      12.010000
    22          O      1     DC     O2     22    -0.6548         16.000000
    23         C7      1     DC    C3'     23     0.0713      9.994000
    24         H1      1     DC    H3'     24     0.0985      3.024000
    25         CT      1     DC    C2'     25    -0.0854      7.978000
    26         HC      1     DC   H2'1     26     0.0718      3.024000
    27         HC      1     DC   H2'2     27     0.0718      3.024000
    28         OS      1     DC    O3'     28    -0.5232         16.000000   ; qtot -0.3079
; residue   2 DC  rtp DC   q -1.0
    29          P      2     DC      P     29     1.1659      30.970000
    30         O2      2     DC    O1P     30    -0.7761         16.000000
    31         O2      2     DC    O2P     31    -0.7761         16.000000
    32         OS      2     DC    O5'     32    -0.4954         16.000000
    33         CJ      2     DC    C5'     33    -0.0069      7.978000
    34         H1      2     DC   H5'1     34     0.0754      3.024000
    35         H1      2     DC   H5'2     35     0.0754      3.024000
    36         CT      2     DC    C4'     36     0.1629      9.994000
    37         H1      2     DC    H4'     37     0.1176      3.024000
    38         OS      2     DC    O4'     38    -0.3691         16.000000
    39         CT      2     DC    C1'     39    -0.0116      9.994000
    40         H2      2     DC    H1'     40     0.1963      3.024000
    41         N*      2     DC     N1     41    -0.0339      14.010000
    42         C1      2     DC     C6     42    -0.0183      9.994000
    43         H4      2     DC     H6     43     0.2293      3.024000
    44         C1      2     DC     C5     44    -0.5222      9.994000
    45         HA      2     DC     H5     45     0.1863      3.024000
    46         CA      2     DC     C4     46     0.8439      12.010000
    47         N2      2     DC     N4     47    -0.9773      9.978000
    48          H      2     DC    H41     48     0.4314      3.024000
    49          H      2     DC    H42     49     0.4314      3.024000
    50         NC      2     DC     N3     50    -0.7748      14.010000
    51          C      2     DC     C2     51     0.7959      12.010000
    52          O      2     DC     O2     52    -0.6548         16.000000
    53         C7      2     DC    C3'     53     0.0713      9.994000
    54         H1      2     DC    H3'     54     0.0985      3.024000
    55         CT      2     DC    C2'     55    -0.0854      7.978000
    56         HC      2     DC   H2'1     56     0.0718      3.024000
    57         HC      2     DC   H2'2     57     0.0718      3.024000
    58         OS      2     DC    O3'     58    -0.5232         16.000000   ; qtot -1.308
; residue   3 DC  rtp DC   q -1.0
    59          P      3     DC      P     59     1.1659      30.970000
    60         O2      3     DC    O1P     60    -0.7761         16.000000
    61         O2      3     DC    O2P     61    -0.7761         16.000000
    62         OS      3     DC    O5'     62    -0.4954         16.000000
    63         CJ      3     DC    C5'     63    -0.0069      7.978000
    64         H1      3     DC   H5'1     64     0.0754      3.024000
    65         H1      3     DC   H5'2     65     0.0754      3.024000
    66         CT      3     DC    C4'     66     0.1629      9.994000
    67         H1      3     DC    H4'     67     0.1176      3.024000
    68         OS      3     DC    O4'     68    -0.3691         16.000000
    69         CT      3     DC    C1'     69    -0.0116      9.994000
    70         H2      3     DC    H1'     70     0.1963      3.024000
    71         N*      3     DC     N1     71    -0.0339      14.010000
    72         C1      3     DC     C6     72    -0.0183      9.994000
    73         H4      3     DC     H6     73     0.2293      3.024000
    74         C1      3     DC     C5     74    -0.5222      9.994000
    75         HA      3     DC     H5     75     0.1863      3.024000
    76         CA      3     DC     C4     76     0.8439      12.010000
    77         N2      3     DC     N4     77    -0.9773      9.978000
    78          H      3     DC    H41     78     0.4314      3.024000
    79          H      3     DC    H42     79     0.4314      3.024000
    80         NC      3     DC     N3     80    -0.7748      14.010000
    81          C      3     DC     C2     81     0.7959      12.010000
    82          O      3     DC     O2     82    -0.6548         16.000000
    83         C7      3     DC    C3'     83     0.0713      9.994000
    84         H1      3     DC    H3'     84     0.0985      3.024000
    85         CT      3     DC    C2'     85    -0.0854      7.978000
    86         HC      3     DC   H2'1     86     0.0718      3.024000
    87         HC      3     DC   H2'2     87     0.0718      3.024000
    88         OS      3     DC    O3'     88    -0.5232         16.000000   ; qtot -2.308
; residue   4 DG  rtp DG   q -1.0
    89          P      4     DG      P     89     1.1659      30.970000
    90         O2      4     DG    O1P     90    -0.7761         16.000000
    91         O2      4     DG    O2P     91    -0.7761         16.000000
    92         OS      4     DG    O5'     92    -0.4954         16.000000
    93         CJ      4     DG    C5'     93    -0.0069      7.978000
    94         H1      4     DG   H5'1     94     0.0754      3.024000
    95         H1      4     DG   H5'2     95     0.0754      3.024000
    96         CT      4     DG    C4'     96     0.1629      9.994000
    97         H1      4     DG    H4'     97     0.1176      3.024000
    98         OS      4     DG    O4'     98    -0.3691         16.000000
    99         CT      4     DG    C1'     99     0.0358      9.994000
   100         H2      4     DG    H1'    100     0.1746      3.024000
   101         N*      4     DG     N9    101     0.0577      14.010000
   102         CK      4     DG     C8    102     0.0736      9.994000
   103         H5      4     DG     H8    103     0.1997      3.024000
   104         NB      4     DG     N7    104    -0.5725      14.010000
   105         CB      4     DG     C5    105     0.1991      12.010000
   106          C      4     DG     C6    106     0.4918      12.010000
   107          O      4     DG     O6    107    -0.5699         16.000000
   108         NA      4     DG     N1    108    -0.5053      11.994000
   109          H      4     DG     H1    109      0.352      3.024000
   110         CA      4     DG     C2    110     0.7432      12.010000
   111         N2      4     DG     N2    111     -0.923      9.978000
   112          H      4     DG    H21    112     0.4235      3.024000
   113          H      4     DG    H22    113     0.4235      3.024000
   114         NC      4     DG     N3    114    -0.6636      14.010000
   115         CB      4     DG     C4    115     0.1814      12.010000
   116         C7      4     DG    C3'    116     0.0713      9.994000
   117         H1      4     DG    H3'    117     0.0985      3.024000
   118         CT      4     DG    C2'    118    -0.0854      7.978000
   119         HC      4     DG   H2'1    119     0.0718      3.024000
   120         HC      4     DG   H2'2    120     0.0718      3.024000
   121         OS      4     DG    O3'    121    -0.5232         16.000000   ; qtot -3.308
; residue   5 DG  rtp DG   q -1.0
   122          P      5     DG      P    122     1.1659      30.970000
   123         O2      5     DG    O1P    123    -0.7761         16.000000
   124         O2      5     DG    O2P    124    -0.7761         16.000000
   125         OS      5     DG    O5'    125    -0.4954         16.000000
   126         CJ      5     DG    C5'    126    -0.0069      7.978000
   127         H1      5     DG   H5'1    127     0.0754      3.024000
   128         H1      5     DG   H5'2    128     0.0754      3.024000
   129         CT      5     DG    C4'    129     0.1629      9.994000
   130         H1      5     DG    H4'    130     0.1176      3.024000
   131         OS      5     DG    O4'    131    -0.3691         16.000000
   132         CT      5     DG    C1'    132     0.0358      9.994000
   133         H2      5     DG    H1'    133     0.1746      3.024000
   134         N*      5     DG     N9    134     0.0577      14.010000
   135         CK      5     DG     C8    135     0.0736      9.994000
   136         H5      5     DG     H8    136     0.1997      3.024000
   137         NB      5     DG     N7    137    -0.5725      14.010000
   138         CB      5     DG     C5    138     0.1991      12.010000
   139          C      5     DG     C6    139     0.4918      12.010000
   140          O      5     DG     O6    140    -0.5699         16.000000
   141         NA      5     DG     N1    141    -0.5053      11.994000
   142          H      5     DG     H1    142      0.352      3.024000
   143         CA      5     DG     C2    143     0.7432      12.010000
   144         N2      5     DG     N2    144     -0.923      9.978000
   145          H      5     DG    H21    145     0.4235      3.024000
   146          H      5     DG    H22    146     0.4235      3.024000
   147         NC      5     DG     N3    147    -0.6636      14.010000
   148         CB      5     DG     C4    148     0.1814      12.010000
   149         C7      5     DG    C3'    149     0.0713      9.994000
   150         H1      5     DG    H3'    150     0.0985      3.024000
   151         CT      5     DG    C2'    151    -0.0854      7.978000
   152         HC      5     DG   H2'1    152     0.0718      3.024000
   153         HC      5     DG   H2'2    153     0.0718      3.024000
   154         OS      5     DG    O3'    154    -0.5232         16.000000   ; qtot -4.308
; residue   6 DC  rtp DC   q -1.0
   155          P      6     DC      P    155     1.1659      30.970000
   156         O2      6     DC    O1P    156    -0.7761         16.000000
   157         O2      6     DC    O2P    157    -0.7761         16.000000
   158         OS      6     DC    O5'    158    -0.4954         16.000000
   159         CJ      6     DC    C5'    159    -0.0069      7.978000
   160         H1      6     DC   H5'1    160     0.0754      3.024000
   161         H1      6     DC   H5'2    161     0.0754      3.024000
   162         CT      6     DC    C4'    162     0.1629      9.994000
   163         H1      6     DC    H4'    163     0.1176      3.024000
   164         OS      6     DC    O4'    164    -0.3691         16.000000
   165         CT      6     DC    C1'    165    -0.0116      9.994000
   166         H2      6     DC    H1'    166     0.1963      3.024000
   167         N*      6     DC     N1    167    -0.0339      14.010000
   168         C1      6     DC     C6    168    -0.0183      9.994000
   169         H4      6     DC     H6    169     0.2293      3.024000
   170         C1      6     DC     C5    170    -0.5222      9.994000
   171         HA      6     DC     H5    171     0.1863      3.024000
   172         CA      6     DC     C4    172     0.8439      12.010000
   173         N2      6     DC     N4    173    -0.9773      9.978000
   174          H      6     DC    H41    174     0.4314      3.024000
   175          H      6     DC    H42    175     0.4314      3.024000
   176         NC      6     DC     N3    176    -0.7748      14.010000
   177          C      6     DC     C2    177     0.7959      12.010000
   178          O      6     DC     O2    178    -0.6548         16.000000
   179         C7      6     DC    C3'    179     0.0713      9.994000
   180         H1      6     DC    H3'    180     0.0985      3.024000
   181         CT      6     DC    C2'    181    -0.0854      7.978000
   182         HC      6     DC   H2'1    182     0.0718      3.024000
   183         HC      6     DC   H2'2    183     0.0718      3.024000
   184         OS      6     DC    O3'    184    -0.5232         16.000000   ; qtot -5.308
; residue   7 DC  rtp DC   q -1.0
   185          P      7     DC      P    185     1.1659      30.970000
   186         O2      7     DC    O1P    186    -0.7761         16.000000
   187         O2      7     DC    O2P    187    -0.7761         16.000000
   188         OS      7     DC    O5'    188    -0.4954         16.000000
   189         CJ      7     DC    C5'    189    -0.0069      7.978000
   190         H1      7     DC   H5'1    190     0.0754      3.024000
   191         H1      7     DC   H5'2    191     0.0754      3.024000
   192         CT      7     DC    C4'    192     0.1629      9.994000
   193         H1      7     DC    H4'    193     0.1176      3.024000
   194         OS      7     DC    O4'    194    -0.3691         16.000000
   195         CT      7     DC    C1'    195    -0.0116      9.994000
   196         H2      7     DC    H1'    196     0.1963      3.024000
   197         N*      7     DC     N1    197    -0.0339      14.010000
   198         C1      7     DC     C6    198    -0.0183      9.994000
   199         H4      7     DC     H6    199     0.2293      3.024000
   200         C1      7     DC     C5    200    -0.5222      9.994000
   201         HA      7     DC     H5    201     0.1863      3.024000
   202         CA      7     DC     C4    202     0.8439      12.010000
   203         N2      7     DC     N4    203    -0.9773      9.978000
   204          H      7     DC    H41    204     0.4314      3.024000
   205          H      7     DC    H42    205     0.4314      3.024000
   206         NC      7     DC     N3    206    -0.7748      14.010000
   207          C      7     DC     C2    207     0.7959      12.010000
   208          O      7     DC     O2    208    -0.6548         16.000000
   209         C7      7     DC    C3'    209     0.0713      9.994000
   210         H1      7     DC    H3'    210     0.0985      3.024000
   211         CT      7     DC    C2'    211    -0.0854      7.978000
   212         HC      7     DC   H2'1    212     0.0718      3.024000
   213         HC      7     DC   H2'2    213     0.0718      3.024000
   214         OS      7     DC    O3'    214    -0.5232         16.000000   ; qtot -6.308
; residue   8 DC  rtp DC   q -1.0
   215          P      8     DC      P    215     1.1659      30.970000
   216         O2      8     DC    O1P    216    -0.7761         16.000000
   217         O2      8     DC    O2P    217    -0.7761         16.000000
   218         OS      8     DC    O5'    218    -0.4954         16.000000
   219         CJ      8     DC    C5'    219    -0.0069      7.978000
   220         H1      8     DC   H5'1    220     0.0754      3.024000
   221         H1      8     DC   H5'2    221     0.0754      3.024000
   222         CT      8     DC    C4'    222     0.1629      9.994000
   223         H1      8     DC    H4'    223     0.1176      3.024000
   224         OS      8     DC    O4'    224    -0.3691         16.000000
   225         CT      8     DC    C1'    225    -0.0116      9.994000
   226         H2      8     DC    H1'    226     0.1963      3.024000
   227         N*      8     DC     N1    227    -0.0339      14.010000
   228         C1      8     DC     C6    228    -0.0183      9.994000
   229         H4      8     DC     H6    229     0.2293      3.024000
   230         C1      8     DC     C5    230    -0.5222      9.994000
   231         HA      8     DC     H5    231     0.1863      3.024000
   232         CA      8     DC     C4    232     0.8439      12.010000
   233         N2      8     DC     N4    233    -0.9773      9.978000
   234          H      8     DC    H41    234     0.4314      3.024000
   235          H      8     DC    H42    235     0.4314      3.024000
   236         NC      8     DC     N3    236    -0.7748      14.010000
   237          C      8     DC     C2    237     0.7959      12.010000
   238          O      8     DC     O2    238    -0.6548         16.000000
   239         C7      8     DC    C3'    239     0.0713      9.994000
   240         H1      8     DC    H3'    240     0.0985      3.024000
   241         CT      8     DC    C2'    241    -0.0854      7.978000
   242         HC      8     DC   H2'1    242     0.0718      3.024000
   243         HC      8     DC   H2'2    243     0.0718      3.024000
   244         OS      8     DC    O3'    244    -0.5232         16.000000   ; qtot -7.308
; residue   9 DC  rtp DC   q -1.0
   245          P      9     DC      P    245     1.1659      30.970000
   246         O2      9     DC    O1P    246    -0.7761         16.000000
   247         O2      9     DC    O2P    247    -0.7761         16.000000
   248         OS      9     DC    O5'    248    -0.4954         16.000000
   249         CJ      9     DC    C5'    249    -0.0069      7.978000
   250         H1      9     DC   H5'1    250     0.0754      3.024000
   251         H1      9     DC   H5'2    251     0.0754      3.024000
   252         CT      9     DC    C4'    252     0.1629      9.994000
   253         H1      9     DC    H4'    253     0.1176      3.024000
   254         OS      9     DC    O4'    254    -0.3691         16.000000
   255         CT      9     DC    C1'    255    -0.0116      9.994000
   256         H2      9     DC    H1'    256     0.1963      3.024000
   257         N*      9     DC     N1    257    -0.0339      14.010000
   258         C1      9     DC     C6    258    -0.0183      9.994000
   259         H4      9     DC     H6    259     0.2293      3.024000
   260         C1      9     DC     C5    260    -0.5222      9.994000
   261         HA      9     DC     H5    261     0.1863      3.024000
   262         CA      9     DC     C4    262     0.8439      12.010000
   263         N2      9     DC     N4    263    -0.9773      9.978000
   264          H      9     DC    H41    264     0.4314      3.024000
   265          H      9     DC    H42    265     0.4314      3.024000
   266         NC      9     DC     N3    266    -0.7748      14.010000
   267          C      9     DC     C2    267     0.7959      12.010000
   268          O      9     DC     O2    268    -0.6548         16.000000
   269         C7      9     DC    C3'    269     0.0713      9.994000
   270         H1      9     DC    H3'    270     0.0985      3.024000
   271         CT      9     DC    C2'    271    -0.0854      7.978000
   272         HC      9     DC   H2'1    272     0.0718      3.024000
   273         HC      9     DC   H2'2    273     0.0718      3.024000
   274         OS      9     DC    O3'    274    -0.5232         16.000000   ; qtot -8.308
; residue  10 DC  rtp DC   q -1.0
   275          P     10     DC      P    275     1.1659      30.970000
   276         O2     10     DC    O1P    276    -0.7761         16.000000
   277         O2     10     DC    O2P    277    -0.7761         16.000000
   278         OS     10     DC    O5'    278    -0.4954         16.000000
   279         CJ     10     DC    C5'    279    -0.0069      7.978000
   280         H1     10     DC   H5'1    280     0.0754      3.024000
   281         H1     10     DC   H5'2    281     0.0754      3.024000
   282         CT     10     DC    C4'    282     0.1629      9.994000
   283         H1     10     DC    H4'    283     0.1176      3.024000
   284         OS     10     DC    O4'    284    -0.3691         16.000000
   285         CT     10     DC    C1'    285    -0.0116      9.994000
   286         H2     10     DC    H1'    286     0.1963      3.024000
   287         N*     10     DC     N1    287    -0.0339      14.010000
   288         C1     10     DC     C6    288    -0.0183      9.994000
   289         H4     10     DC     H6    289     0.2293      3.024000
   290         C1     10     DC     C5    290    -0.5222      9.994000
   291         HA     10     DC     H5    291     0.1863      3.024000
   292         CA     10     DC     C4    292     0.8439      12.010000
   293         N2     10     DC     N4    293    -0.9773      9.978000
   294          H     10     DC    H41    294     0.4314      3.024000
   295          H     10     DC    H42    295     0.4314      3.024000
   296         NC     10     DC     N3    296    -0.7748      14.010000
   297          C     10     DC     C2    297     0.7959      12.010000
   298          O     10     DC     O2    298    -0.6548         16.000000
   299         C7     10     DC    C3'    299     0.0713      9.994000
   300         H1     10     DC    H3'    300     0.0985      3.024000
   301         CT     10     DC    C2'    301    -0.0854      7.978000
   302         HC     10     DC   H2'1    302     0.0718      3.024000
   303         HC     10     DC   H2'2    303     0.0718      3.024000
   304         OS     10     DC    O3'    304    -0.5232         16.000000   ; qtot -9.308
; residue  11 DG  rtp DG   q -1.0
   305          P     11     DG      P    305     1.1659      30.970000
   306         O2     11     DG    O1P    306    -0.7761         16.000000
   307         O2     11     DG    O2P    307    -0.7761         16.000000
   308         OS     11     DG    O5'    308    -0.4954         16.000000
   309         CJ     11     DG    C5'    309    -0.0069      7.978000
   310         H1     11     DG   H5'1    310     0.0754      3.024000
   311         H1     11     DG   H5'2    311     0.0754      3.024000
   312         CT     11     DG    C4'    312     0.1629      9.994000
   313         H1     11     DG    H4'    313     0.1176      3.024000
   314         OS     11     DG    O4'    314    -0.3691         16.000000
   315         CT     11     DG    C1'    315     0.0358      9.994000
   316         H2     11     DG    H1'    316     0.1746      3.024000
   317         N*     11     DG     N9    317     0.0577      14.010000
   318         CK     11     DG     C8    318     0.0736      9.994000
   319         H5     11     DG     H8    319     0.1997      3.024000
   320         NB     11     DG     N7    320    -0.5725      14.010000
   321         CB     11     DG     C5    321     0.1991      12.010000
   322          C     11     DG     C6    322     0.4918      12.010000
   323          O     11     DG     O6    323    -0.5699         16.000000
   324         NA     11     DG     N1    324    -0.5053      11.994000
   325          H     11     DG     H1    325      0.352      3.024000
   326         CA     11     DG     C2    326     0.7432      12.010000
   327         N2     11     DG     N2    327     -0.923      9.978000
   328          H     11     DG    H21    328     0.4235      3.024000
   329          H     11     DG    H22    329     0.4235      3.024000
   330         NC     11     DG     N3    330    -0.6636      14.010000
   331         CB     11     DG     C4    331     0.1814      12.010000
   332         C7     11     DG    C3'    332     0.0713      9.994000
   333         H1     11     DG    H3'    333     0.0985      3.024000
   334         CT     11     DG    C2'    334    -0.0854      7.978000
   335         HC     11     DG   H2'1    335     0.0718      3.024000
   336         HC     11     DG   H2'2    336     0.0718      3.024000
   337         OS     11     DG    O3'    337    -0.5232         16.000000   ; qtot -10.31
; residue  12 DC  rtp DC   q -1.0
   338          P     12     DC      P    338     1.1659      30.970000
   339         O2     12     DC    O1P    339    -0.7761         16.000000
   340         O2     12     DC    O2P    340    -0.7761         16.000000
   341         OS     12     DC    O5'    341    -0.4954         16.000000
   342         CJ     12     DC    C5'    342    -0.0069      7.978000
   343         H1     12     DC   H5'1    343     0.0754      3.024000
   344         H1     12     DC   H5'2    344     0.0754      3.024000
   345         CT     12     DC    C4'    345     0.1629      9.994000
   346         H1     12     DC    H4'    346     0.1176      3.024000
   347         OS     12     DC    O4'    347    -0.3691         16.000000
   348         CT     12     DC    C1'    348    -0.0116      9.994000
   349         H2     12     DC    H1'    349     0.1963      3.024000
   350         N*     12     DC     N1    350    -0.0339      14.010000
   351         C1     12     DC     C6    351    -0.0183      9.994000
   352         H4     12     DC     H6    352     0.2293      3.024000
   353         C1     12     DC     C5    353    -0.5222      9.994000
   354         HA     12     DC     H5    354     0.1863      3.024000
   355         CA     12     DC     C4    355     0.8439      12.010000
   356         N2     12     DC     N4    356    -0.9773      9.978000
   357          H     12     DC    H41    357     0.4314      3.024000
   358          H     12     DC    H42    358     0.4314      3.024000
   359         NC     12     DC     N3    359    -0.7748      14.010000
   360          C     12     DC     C2    360     0.7959      12.010000
   361          O     12     DC     O2    361    -0.6548         16.000000
   362         C7     12     DC    C3'    362     0.0713      9.994000
   363         H1     12     DC    H3'    363     0.0985      3.024000
   364         CT     12     DC    C2'    364    -0.0854      7.978000
   365         HC     12     DC   H2'1    365     0.0718      3.024000
   366         HC     12     DC   H2'2    366     0.0718      3.024000
   367         OS     12     DC    O3'    367    -0.5232         16.000000   ; qtot -11.31
; residue  13 DC  rtp DC   q -1.0
   368          P     13     DC      P    368     1.1659      30.970000
   369         O2     13     DC    O1P    369    -0.7761         16.000000
   370         O2     13     DC    O2P    370    -0.7761         16.000000
   371         OS     13     DC    O5'    371    -0.4954         16.000000
   372         CJ     13     DC    C5'    372    -0.0069      7.978000
   373         H1     13     DC   H5'1    373     0.0754      3.024000
   374         H1     13     DC   H5'2    374     0.0754      3.024000
   375         CT     13     DC    C4'    375     0.1629      9.994000
   376         H1     13     DC    H4'    376     0.1176      3.024000
   377         OS     13     DC    O4'    377    -0.3691         16.000000
   378         CT     13     DC    C1'    378    -0.0116      9.994000
   379         H2     13     DC    H1'    379     0.1963      3.024000
   380         N*     13     DC     N1    380    -0.0339      14.010000
   381         C1     13     DC     C6    381    -0.0183      9.994000
   382         H4     13     DC     H6    382     0.2293      3.024000
   383         C1     13     DC     C5    383    -0.5222      9.994000
   384         HA     13     DC     H5    384     0.1863      3.024000
   385         CA     13     DC     C4    385     0.8439      12.010000
   386         N2     13     DC     N4    386    -0.9773      9.978000
   387          H     13     DC    H41    387     0.4314      3.024000
   388          H     13     DC    H42    388     0.4314      3.024000
   389         NC     13     DC     N3    389    -0.7748      14.010000
   390          C     13     DC     C2    390     0.7959      12.010000
   391          O     13     DC     O2    391    -0.6548         16.000000
   392         C7     13     DC    C3'    392     0.0713      9.994000
   393         H1     13     DC    H3'    393     0.0985      3.024000
   394         CT     13     DC    C2'    394    -0.0854      7.978000
   395         HC     13     DC   H2'1    395     0.0718      3.024000
   396         HC     13     DC   H2'2    396     0.0718      3.024000
   397         OS     13     DC    O3'    397    -0.5232         16.000000   ; qtot -12.31
; residue  14 DA  rtp DA   q -1.0
   398          P     14     DA      P    398     1.1659      30.970000
   399         O2     14     DA    O1P    399    -0.7761         16.000000
   400         O2     14     DA    O2P    400    -0.7761         16.000000
   401         OS     14     DA    O5'    401    -0.4954         16.000000
   402         CJ     14     DA    C5'    402    -0.0069      7.978000
   403         H1     14     DA   H5'1    403     0.0754      3.024000
   404         H1     14     DA   H5'2    404     0.0754      3.024000
   405         CT     14     DA    C4'    405     0.1629      9.994000
   406         H1     14     DA    H4'    406     0.1176      3.024000
   407         OS     14     DA    O4'    407    -0.3691         16.000000
   408         CT     14     DA    C1'    408     0.0431      9.994000
   409         H2     14     DA    H1'    409     0.1838      3.024000
   410         N*     14     DA     N9    410    -0.0268      14.010000
   411         C2     14     DA     C8    411     0.1607      9.994000
   412         H5     14     DA     H8    412     0.1877      3.024000
   413         NB     14     DA     N7    413    -0.6175      14.010000
   414         CB     14     DA     C5    414     0.0725      12.010000
   415         CA     14     DA     C6    415     0.6897      12.010000
   416         N2     14     DA     N6    416    -0.9123      9.978000
   417          H     14     DA    H61    417     0.4167      3.024000
   418          H     14     DA    H62    418     0.4167      3.024000
   419         NC     14     DA     N1    419    -0.7624      14.010000
   420         CQ     14     DA     C2    420     0.5716      9.994000
   421         H5     14     DA     H2    421     0.0598      3.024000
   422         NC     14     DA     N3    422    -0.7417      14.010000
   423         CB     14     DA     C4    423       0.38      12.010000
   424         C7     14     DA    C3'    424     0.0713      9.994000
   425         H1     14     DA    H3'    425     0.0985      3.024000
   426         CT     14     DA    C2'    426    -0.0854      7.978000
   427         HC     14     DA   H2'1    427     0.0718      3.024000
   428         HC     14     DA   H2'2    428     0.0718      3.024000
   429         OS     14     DA    O3'    429    -0.5232         16.000000   ; qtot -13.31
; residue  15 DT  rtp DT   q -1.0
   430          P     15     DT      P    430     1.1659      30.970000
   431         O2     15     DT    O1P    431    -0.7761         16.000000
   432         O2     15     DT    O2P    432    -0.7761         16.000000
   433         OS     15     DT    O5'    433    -0.4954         16.000000
   434         CJ     15     DT    C5'    434    -0.0069      7.978000
   435         H1     15     DT   H5'1    435     0.0754      3.024000
   436         H1     15     DT   H5'2    436     0.0754      3.024000
   437         CT     15     DT    C4'    437     0.1629      9.994000
   438         H1     15     DT    H4'    438     0.1176      3.024000
   439         OS     15     DT    O4'    439    -0.3691         16.000000
   440         CT     15     DT    C1'    440      0.068      9.994000
   441         H2     15     DT    H1'    441     0.1804      3.024000
   442         N*     15     DT     N1    442    -0.0239      14.010000
   443         CM     15     DT     C6    443    -0.2209      9.994000
   444         H4     15     DT     H6    444     0.2607      3.024000
   445         CM     15     DT     C5    445     0.0025      12.010000
   446         CT     15     DT     C7    446    -0.2269      5.962000
   447         HC     15     DT    H71    447      0.077      3.024000
   448         HC     15     DT    H72    448      0.077      3.024000
   449         HC     15     DT    H73    449      0.077      3.024000
   450          C     15     DT     C4    450     0.5194      12.010000
   451          O     15     DT     O4    451    -0.5563         16.000000
   452         NA     15     DT     N3    452     -0.434      11.994000
   453          H     15     DT     H3    453      0.342      3.024000
   454          C     15     DT     C2    454     0.5677      12.010000
   455          O     15     DT     O2    455    -0.5881         16.000000
   456         C7     15     DT    C3'    456     0.0713      9.994000
   457         H1     15     DT    H3'    457     0.0985      3.024000
   458         CT     15     DT    C2'    458    -0.0854      7.978000
   459         HC     15     DT   H2'1    459     0.0718      3.024000
   460         HC     15     DT   H2'2    460     0.0718      3.024000
   461         OS     15     DT    O3'    461    -0.5232         16.000000   ; qtot -14.31
; residue  16 DT  rtp DT   q -1.0
   462          P     16     DT      P    462     1.1659      30.970000
   463         O2     16     DT    O1P    463    -0.7761         16.000000
   464         O2     16     DT    O2P    464    -0.7761         16.000000
   465         OS     16     DT    O5'    465    -0.4954         16.000000
   466         CJ     16     DT    C5'    466    -0.0069      7.978000
   467         H1     16     DT   H5'1    467     0.0754      3.024000
   468         H1     16     DT   H5'2    468     0.0754      3.024000
   469         CT     16     DT    C4'    469     0.1629      9.994000
   470         H1     16     DT    H4'    470     0.1176      3.024000
   471         OS     16     DT    O4'    471    -0.3691         16.000000
   472         CT     16     DT    C1'    472      0.068      9.994000
   473         H2     16     DT    H1'    473     0.1804      3.024000
   474         N*     16     DT     N1    474    -0.0239      14.010000
   475         CM     16     DT     C6    475    -0.2209      9.994000
   476         H4     16     DT     H6    476     0.2607      3.024000
   477         CM     16     DT     C5    477     0.0025      12.010000
   478         CT     16     DT     C7    478    -0.2269      5.962000
   479         HC     16     DT    H71    479      0.077      3.024000
   480         HC     16     DT    H72    480      0.077      3.024000
   481         HC     16     DT    H73    481      0.077      3.024000
   482          C     16     DT     C4    482     0.5194      12.010000
   483          O     16     DT     O4    483    -0.5563         16.000000
   484         NA     16     DT     N3    484     -0.434      11.994000
   485          H     16     DT     H3    485      0.342      3.024000
   486          C     16     DT     C2    486     0.5677      12.010000
   487          O     16     DT     O2    487    -0.5881         16.000000
   488         C7     16     DT    C3'    488     0.0713      9.994000
   489         H1     16     DT    H3'    489     0.0985      3.024000
   490         CT     16     DT    C2'    490    -0.0854      7.978000
   491         HC     16     DT   H2'1    491     0.0718      3.024000
   492         HC     16     DT   H2'2    492     0.0718      3.024000
   493         OS     16     DT    O3'    493    -0.5232         16.000000   ; qtot -15.31
; residue  17 DT  rtp DT   q -1.0
   494          P     17     DT      P    494     1.1659      30.970000
   495         O2     17     DT    O1P    495    -0.7761         16.000000
   496         O2     17     DT    O2P    496    -0.7761         16.000000
   497         OS     17     DT    O5'    497    -0.4954         16.000000
   498         CJ     17     DT    C5'    498    -0.0069      7.978000
   499         H1     17     DT   H5'1    499     0.0754      3.024000
   500         H1     17     DT   H5'2    500     0.0754      3.024000
   501         CT     17     DT    C4'    501     0.1629      9.994000
   502         H1     17     DT    H4'    502     0.1176      3.024000
   503         OS     17     DT    O4'    503    -0.3691         16.000000
   504         CT     17     DT    C1'    504      0.068      9.994000
   505         H2     17     DT    H1'    505     0.1804      3.024000
   506         N*     17     DT     N1    506    -0.0239      14.010000
   507         CM     17     DT     C6    507    -0.2209      9.994000
   508         H4     17     DT     H6    508     0.2607      3.024000
   509         CM     17     DT     C5    509     0.0025      12.010000
   510         CT     17     DT     C7    510    -0.2269      5.962000
   511         HC     17     DT    H71    511      0.077      3.024000
   512         HC     17     DT    H72    512      0.077      3.024000
   513         HC     17     DT    H73    513      0.077      3.024000
   514          C     17     DT     C4    514     0.5194      12.010000
   515          O     17     DT     O4    515    -0.5563         16.000000
   516         NA     17     DT     N3    516     -0.434      11.994000
   517          H     17     DT     H3    517      0.342      3.024000
   518          C     17     DT     C2    518     0.5677      12.010000
   519          O     17     DT     O2    519    -0.5881         16.000000
   520         C7     17     DT    C3'    520     0.0713      9.994000
   521         H1     17     DT    H3'    521     0.0985      3.024000
   522         CT     17     DT    C2'    522    -0.0854      7.978000
   523         HC     17     DT   H2'1    523     0.0718      3.024000
   524         HC     17     DT   H2'2    524     0.0718      3.024000
   525         OS     17     DT    O3'    525    -0.5232         16.000000   ; qtot -16.31
; residue  18 DC  rtp DC   q -1.0
   526          P     18     DC      P    526     1.1659      30.970000
   527         O2     18     DC    O1P    527    -0.7761         16.000000
   528         O2     18     DC    O2P    528    -0.7761         16.000000
   529         OS     18     DC    O5'    529    -0.4954         16.000000
   530         CJ     18     DC    C5'    530    -0.0069      7.978000
   531         H1     18     DC   H5'1    531     0.0754      3.024000
   532         H1     18     DC   H5'2    532     0.0754      3.024000
   533         CT     18     DC    C4'    533     0.1629      9.994000
   534         H1     18     DC    H4'    534     0.1176      3.024000
   535         OS     18     DC    O4'    535    -0.3691         16.000000
   536         CT     18     DC    C1'    536    -0.0116      9.994000
   537         H2     18     DC    H1'    537     0.1963      3.024000
   538         N*     18     DC     N1    538    -0.0339      14.010000
   539         C1     18     DC     C6    539    -0.0183      9.994000
   540         H4     18     DC     H6    540     0.2293      3.024000
   541         C1     18     DC     C5    541    -0.5222      9.994000
   542         HA     18     DC     H5    542     0.1863      3.024000
   543         CA     18     DC     C4    543     0.8439      12.010000
   544         N2     18     DC     N4    544    -0.9773      9.978000
   545          H     18     DC    H41    545     0.4314      3.024000
   546          H     18     DC    H42    546     0.4314      3.024000
   547         NC     18     DC     N3    547    -0.7748      14.010000
   548          C     18     DC     C2    548     0.7959      12.010000
   549          O     18     DC     O2    549    -0.6548         16.000000
   550         C7     18     DC    C3'    550     0.0713      9.994000
   551         H1     18     DC    H3'    551     0.0985      3.024000
   552         CT     18     DC    C2'    552    -0.0854      7.978000
   553         HC     18     DC   H2'1    553     0.0718      3.024000
   554         HC     18     DC   H2'2    554     0.0718      3.024000
   555         OS     18     DC    O3'    555    -0.5232         16.000000   ; qtot -17.31
; residue  19 DG  rtp DG   q -1.0
   556          P     19     DG      P    556     1.1659      30.970000
   557         O2     19     DG    O1P    557    -0.7761         16.000000
   558         O2     19     DG    O2P    558    -0.7761         16.000000
   559         OS     19     DG    O5'    559    -0.4954         16.000000
   560         CJ     19     DG    C5'    560    -0.0069      7.978000
   561         H1     19     DG   H5'1    561     0.0754      3.024000
   562         H1     19     DG   H5'2    562     0.0754      3.024000
   563         CT     19     DG    C4'    563     0.1629      9.994000
   564         H1     19     DG    H4'    564     0.1176      3.024000
   565         OS     19     DG    O4'    565    -0.3691         16.000000
   566         CT     19     DG    C1'    566     0.0358      9.994000
   567         H2     19     DG    H1'    567     0.1746      3.024000
   568         N*     19     DG     N9    568     0.0577      14.010000
   569         CK     19     DG     C8    569     0.0736      9.994000
   570         H5     19     DG     H8    570     0.1997      3.024000
   571         NB     19     DG     N7    571    -0.5725      14.010000
   572         CB     19     DG     C5    572     0.1991      12.010000
   573          C     19     DG     C6    573     0.4918      12.010000
   574          O     19     DG     O6    574    -0.5699         16.000000
   575         NA     19     DG     N1    575    -0.5053      11.994000
   576          H     19     DG     H1    576      0.352      3.024000
   577         CA     19     DG     C2    577     0.7432      12.010000
   578         N2     19     DG     N2    578     -0.923      9.978000
   579          H     19     DG    H21    579     0.4235      3.024000
   580          H     19     DG    H22    580     0.4235      3.024000
   581         NC     19     DG     N3    581    -0.6636      14.010000
   582         CB     19     DG     C4    582     0.1814      12.010000
   583         C7     19     DG    C3'    583     0.0713      9.994000
   584         H1     19     DG    H3'    584     0.0985      3.024000
   585         CT     19     DG    C2'    585    -0.0854      7.978000
   586         HC     19     DG   H2'1    586     0.0718      3.024000
   587         HC     19     DG   H2'2    587     0.0718      3.024000
   588         OS     19     DG    O3'    588    -0.5232         16.000000   ; qtot -18.31
; residue  20 DG  rtp DG   q -1.0
   589          P     20     DG      P    589     1.1659      30.970000
   590         O2     20     DG    O1P    590    -0.7761         16.000000
   591         O2     20     DG    O2P    591    -0.7761         16.000000
   592         OS     20     DG    O5'    592    -0.4954         16.000000
   593         CJ     20     DG    C5'    593    -0.0069      7.978000
   594         H1     20     DG   H5'1    594     0.0754      3.024000
   595         H1     20     DG   H5'2    595     0.0754      3.024000
   596         CT     20     DG    C4'    596     0.1629      9.994000
   597         H1     20     DG    H4'    597     0.1176      3.024000
   598         OS     20     DG    O4'    598    -0.3691         16.000000
   599         CT     20     DG    C1'    599     0.0358      9.994000
   600         H2     20     DG    H1'    600     0.1746      3.024000
   601         N*     20     DG     N9    601     0.0577      14.010000
   602         CK     20     DG     C8    602     0.0736      9.994000
   603         H5     20     DG     H8    603     0.1997      3.024000
   604         NB     20     DG     N7    604    -0.5725      14.010000
   605         CB     20     DG     C5    605     0.1991      12.010000
   606          C     20     DG     C6    606     0.4918      12.010000
   607          O     20     DG     O6    607    -0.5699         16.000000
   608         NA     20     DG     N1    608    -0.5053      11.994000
   609          H     20     DG     H1    609      0.352      3.024000
   610         CA     20     DG     C2    610     0.7432      12.010000
   611         N2     20     DG     N2    611     -0.923      9.978000
   612          H     20     DG    H21    612     0.4235      3.024000
   613          H     20     DG    H22    613     0.4235      3.024000
   614         NC     20     DG     N3    614    -0.6636      14.010000
   615         CB     20     DG     C4    615     0.1814      12.010000
   616         C7     20     DG    C3'    616     0.0713      9.994000
   617         H1     20     DG    H3'    617     0.0985      3.024000
   618         CT     20     DG    C2'    618    -0.0854      7.978000
   619         HC     20     DG   H2'1    619     0.0718      3.024000
   620         HC     20     DG   H2'2    620     0.0718      3.024000
   621         OS     20     DG    O3'    621    -0.5232         16.000000   ; qtot -19.31
; residue  21 DA  rtp DA   q -1.0
   622          P     21     DA      P    622     1.1659      30.970000
   623         O2     21     DA    O1P    623    -0.7761         16.000000
   624         O2     21     DA    O2P    624    -0.7761         16.000000
   625         OS     21     DA    O5'    625    -0.4954         16.000000
   626         CJ     21     DA    C5'    626    -0.0069      7.978000
   627         H1     21     DA   H5'1    627     0.0754      3.024000
   628         H1     21     DA   H5'2    628     0.0754      3.024000
   629         CT     21     DA    C4'    629     0.1629      9.994000
   630         H1     21     DA    H4'    630     0.1176      3.024000
   631         OS     21     DA    O4'    631    -0.3691         16.000000
   632         CT     21     DA    C1'    632     0.0431      9.994000
   633         H2     21     DA    H1'    633     0.1838      3.024000
   634         N*     21     DA     N9    634    -0.0268      14.010000
   635         C2     21     DA     C8    635     0.1607      9.994000
   636         H5     21     DA     H8    636     0.1877      3.024000
   637         NB     21     DA     N7    637    -0.6175      14.010000
   638         CB     21     DA     C5    638     0.0725      12.010000
   639         CA     21     DA     C6    639     0.6897      12.010000
   640         N2     21     DA     N6    640    -0.9123      9.978000
   641          H     21     DA    H61    641     0.4167      3.024000
   642          H     21     DA    H62    642     0.4167      3.024000
   643         NC     21     DA     N1    643    -0.7624      14.010000
   644         CQ     21     DA     C2    644     0.5716      9.994000
   645         H5     21     DA     H2    645     0.0598      3.024000
   646         NC     21     DA     N3    646    -0.7417      14.010000
   647         CB     21     DA     C4    647       0.38      12.010000
   648         C7     21     DA    C3'    648     0.0713      9.994000
   649         H1     21     DA    H3'    649     0.0985      3.024000
   650         CT     21     DA    C2'    650    -0.0854      7.978000
   651         HC     21     DA   H2'1    651     0.0718      3.024000
   652         HC     21     DA   H2'2    652     0.0718      3.024000
   653         OS     21     DA    O3'    653    -0.5232         16.000000   ; qtot -20.31
; residue  22 DC  rtp DC   q -1.0
   654          P     22     DC      P    654     1.1659      30.970000
   655         O2     22     DC    O1P    655    -0.7761         16.000000
   656         O2     22     DC    O2P    656    -0.7761         16.000000
   657         OS     22     DC    O5'    657    -0.4954         16.000000
   658         CJ     22     DC    C5'    658    -0.0069      7.978000
   659         H1     22     DC   H5'1    659     0.0754      3.024000
   660         H1     22     DC   H5'2    660     0.0754      3.024000
   661         CT     22     DC    C4'    661     0.1629      9.994000
   662         H1     22     DC    H4'    662     0.1176      3.024000
   663         OS     22     DC    O4'    663    -0.3691         16.000000
   664         CT     22     DC    C1'    664    -0.0116      9.994000
   665         H2     22     DC    H1'    665     0.1963      3.024000
   666         N*     22     DC     N1    666    -0.0339      14.010000
   667         C1     22     DC     C6    667    -0.0183      9.994000
   668         H4     22     DC     H6    668     0.2293      3.024000
   669         C1     22     DC     C5    669    -0.5222      9.994000
   670         HA     22     DC     H5    670     0.1863      3.024000
   671         CA     22     DC     C4    671     0.8439      12.010000
   672         N2     22     DC     N4    672    -0.9773      9.978000
   673          H     22     DC    H41    673     0.4314      3.024000
   674          H     22     DC    H42    674     0.4314      3.024000
   675         NC     22     DC     N3    675    -0.7748      14.010000
   676          C     22     DC     C2    676     0.7959      12.010000
   677          O     22     DC     O2    677    -0.6548         16.000000
   678         C7     22     DC    C3'    678     0.0713      9.994000
   679         H1     22     DC    H3'    679     0.0985      3.024000
   680         CT     22     DC    C2'    680    -0.0854      7.978000
   681         HC     22     DC   H2'1    681     0.0718      3.024000
   682         HC     22     DC   H2'2    682     0.0718      3.024000
   683         OS     22     DC    O3'    683    -0.5232         16.000000   ; qtot -21.31
; residue  23 DT  rtp DT   q -1.0
   684          P     23     DT      P    684     1.1659      30.970000
   685         O2     23     DT    O1P    685    -0.7761         16.000000
   686         O2     23     DT    O2P    686    -0.7761         16.000000
   687         OS     23     DT    O5'    687    -0.4954         16.000000
   688         CJ     23     DT    C5'    688    -0.0069      7.978000
   689         H1     23     DT   H5'1    689     0.0754      3.024000
   690         H1     23     DT   H5'2    690     0.0754      3.024000
   691         CT     23     DT    C4'    691     0.1629      9.994000
   692         H1     23     DT    H4'    692     0.1176      3.024000
   693         OS     23     DT    O4'    693    -0.3691         16.000000
   694         CT     23     DT    C1'    694      0.068      9.994000
   695         H2     23     DT    H1'    695     0.1804      3.024000
   696         N*     23     DT     N1    696    -0.0239      14.010000
   697         CM     23     DT     C6    697    -0.2209      9.994000
   698         H4     23     DT     H6    698     0.2607      3.024000
   699         CM     23     DT     C5    699     0.0025      12.010000
   700         CT     23     DT     C7    700    -0.2269      5.962000
   701         HC     23     DT    H71    701      0.077      3.024000
   702         HC     23     DT    H72    702      0.077      3.024000
   703         HC     23     DT    H73    703      0.077      3.024000
   704          C     23     DT     C4    704     0.5194      12.010000
   705          O     23     DT     O4    705    -0.5563         16.000000
   706         NA     23     DT     N3    706     -0.434      11.994000
   707          H     23     DT     H3    707      0.342      3.024000
   708          C     23     DT     C2    708     0.5677      12.010000
   709          O     23     DT     O2    709    -0.5881         16.000000
   710         C7     23     DT    C3'    710     0.0713      9.994000
   711         H1     23     DT    H3'    711     0.0985      3.024000
   712         CT     23     DT    C2'    712    -0.0854      7.978000
   713         HC     23     DT   H2'1    713     0.0718      3.024000
   714         HC     23     DT   H2'2    714     0.0718      3.024000
   715         OS     23     DT    O3'    715    -0.5232         16.000000   ; qtot -22.31
; residue  24 DG  rtp DG   q -1.0
   716          P     24     DG      P    716     1.1659      30.970000
   717         O2     24     DG    O1P    717    -0.7761         16.000000
   718         O2     24     DG    O2P    718    -0.7761         16.000000
   719         OS     24     DG    O5'    719    -0.4954         16.000000
   720         CJ     24     DG    C5'    720    -0.0069      7.978000
   721         H1     24     DG   H5'1    721     0.0754      3.024000
   722         H1     24     DG   H5'2    722     0.0754      3.024000
   723         CT     24     DG    C4'    723     0.1629      9.994000
   724         H1     24     DG    H4'    724     0.1176      3.024000
   725         OS     24     DG    O4'    725    -0.3691         16.000000
   726         CT     24     DG    C1'    726     0.0358      9.994000
   727         H2     24     DG    H1'    727     0.1746      3.024000
   728         N*     24     DG     N9    728     0.0577      14.010000
   729         CK     24     DG     C8    729     0.0736      9.994000
   730         H5     24     DG     H8    730     0.1997      3.024000
   731         NB     24     DG     N7    731    -0.5725      14.010000
   732         CB     24     DG     C5    732     0.1991      12.010000
   733          C     24     DG     C6    733     0.4918      12.010000
   734          O     24     DG     O6    734    -0.5699         16.000000
   735         NA     24     DG     N1    735    -0.5053      11.994000
   736          H     24     DG     H1    736      0.352      3.024000
   737         CA     24     DG     C2    737     0.7432      12.010000
   738         N2     24     DG     N2    738     -0.923      9.978000
   739          H     24     DG    H21    739     0.4235      3.024000
   740          H     24     DG    H22    740     0.4235      3.024000
   741         NC     24     DG     N3    741    -0.6636      14.010000
   742         CB     24     DG     C4    742     0.1814      12.010000
   743         C7     24     DG    C3'    743     0.0713      9.994000
   744         H1     24     DG    H3'    744     0.0985      3.024000
   745         CT     24     DG    C2'    745    -0.0854      7.978000
   746         HC     24     DG   H2'1    746     0.0718      3.024000
   747         HC     24     DG   H2'2    747     0.0718      3.024000
   748         OS     24     DG    O3'    748    -0.5232         16.000000   ; qtot -23.31
; residue  25 DG  rtp DG   q -1.0
   749          P     25     DG      P    749     1.1659      30.970000
   750         O2     25     DG    O1P    750    -0.7761         16.000000
   751         O2     25     DG    O2P    751    -0.7761         16.000000
   752         OS     25     DG    O5'    752    -0.4954         16.000000
   753         CJ     25     DG    C5'    753    -0.0069      7.978000
   754         H1     25     DG   H5'1    754     0.0754      3.024000
   755         H1     25     DG   H5'2    755     0.0754      3.024000
   756         CT     25     DG    C4'    756     0.1629      9.994000
   757         H1     25     DG    H4'    757     0.1176      3.024000
   758         OS     25     DG    O4'    758    -0.3691         16.000000
   759         CT     25     DG    C1'    759     0.0358      9.994000
   760         H2     25     DG    H1'    760     0.1746      3.024000
   761         N*     25     DG     N9    761     0.0577      14.010000
   762         CK     25     DG     C8    762     0.0736      9.994000
   763         H5     25     DG     H8    763     0.1997      3.024000
   764         NB     25     DG     N7    764    -0.5725      14.010000
   765         CB     25     DG     C5    765     0.1991      12.010000
   766          C     25     DG     C6    766     0.4918      12.010000
   767          O     25     DG     O6    767    -0.5699         16.000000
   768         NA     25     DG     N1    768    -0.5053      11.994000
   769          H     25     DG     H1    769      0.352      3.024000
   770         CA     25     DG     C2    770     0.7432      12.010000
   771         N2     25     DG     N2    771     -0.923      9.978000
   772          H     25     DG    H21    772     0.4235      3.024000
   773          H     25     DG    H22    773     0.4235      3.024000
   774         NC     25     DG     N3    774    -0.6636      14.010000
   775         CB     25     DG     C4    775     0.1814      12.010000
   776         C7     25     DG    C3'    776     0.0713      9.994000
   777         H1     25     DG    H3'    777     0.0985      3.024000
   778         CT     25     DG    C2'    778    -0.0854      7.978000
   779         HC     25     DG   H2'1    779     0.0718      3.024000
   780         HC     25     DG   H2'2    780     0.0718      3.024000
   781         OS     25     DG    O3'    781    -0.5232         16.000000   ; qtot -24.31
; residue  26 DG  rtp DG   q -1.0
   782          P     26     DG      P    782     1.1659      30.970000
   783         O2     26     DG    O1P    783    -0.7761         16.000000
   784         O2     26     DG    O2P    784    -0.7761         16.000000
   785         OS     26     DG    O5'    785    -0.4954         16.000000
   786         CJ     26     DG    C5'    786    -0.0069      7.978000
   787         H1     26     DG   H5'1    787     0.0754      3.024000
   788         H1     26     DG   H5'2    788     0.0754      3.024000
   789         CT     26     DG    C4'    789     0.1629      9.994000
   790         H1     26     DG    H4'    790     0.1176      3.024000
   791         OS     26     DG    O4'    791    -0.3691         16.000000
   792         CT     26     DG    C1'    792     0.0358      9.994000
   793         H2     26     DG    H1'    793     0.1746      3.024000
   794         N*     26     DG     N9    794     0.0577      14.010000
   795         CK     26     DG     C8    795     0.0736      9.994000
   796         H5     26     DG     H8    796     0.1997      3.024000
   797         NB     26     DG     N7    797    -0.5725      14.010000
   798         CB     26     DG     C5    798     0.1991      12.010000
   799          C     26     DG     C6    799     0.4918      12.010000
   800          O     26     DG     O6    800    -0.5699         16.000000
   801         NA     26     DG     N1    801    -0.5053      11.994000
   802          H     26     DG     H1    802      0.352      3.024000
   803         CA     26     DG     C2    803     0.7432      12.010000
   804         N2     26     DG     N2    804     -0.923      9.978000
   805          H     26     DG    H21    805     0.4235      3.024000
   806          H     26     DG    H22    806     0.4235      3.024000
   807         NC     26     DG     N3    807    -0.6636      14.010000
   808         CB     26     DG     C4    808     0.1814      12.010000
   809         C7     26     DG    C3'    809     0.0713      9.994000
   810         H1     26     DG    H3'    810     0.0985      3.024000
   811         CT     26     DG    C2'    811    -0.0854      7.978000
   812         HC     26     DG   H2'1    812     0.0718      3.024000
   813         HC     26     DG   H2'2    813     0.0718      3.024000
   814         OS     26     DG    O3'    814    -0.5232         16.000000   ; qtot -25.31
; residue  27 DA  rtp DA   q -1.0
   815          P     27     DA      P    815     1.1659      30.970000
   816         O2     27     DA    O1P    816    -0.7761         16.000000
   817         O2     27     DA    O2P    817    -0.7761         16.000000
   818         OS     27     DA    O5'    818    -0.4954         16.000000
   819         CJ     27     DA    C5'    819    -0.0069      7.978000
   820         H1     27     DA   H5'1    820     0.0754      3.024000
   821         H1     27     DA   H5'2    821     0.0754      3.024000
   822         CT     27     DA    C4'    822     0.1629      9.994000
   823         H1     27     DA    H4'    823     0.1176      3.024000
   824         OS     27     DA    O4'    824    -0.3691         16.000000
   825         CT     27     DA    C1'    825     0.0431      9.994000
   826         H2     27     DA    H1'    826     0.1838      3.024000
   827         N*     27     DA     N9    827    -0.0268      14.010000
   828         C2     27     DA     C8    828     0.1607      9.994000
   829         H5     27     DA     H8    829     0.1877      3.024000
   830         NB     27     DA     N7    830    -0.6175      14.010000
   831         CB     27     DA     C5    831     0.0725      12.010000
   832         CA     27     DA     C6    832     0.6897      12.010000
   833         N2     27     DA     N6    833    -0.9123      9.978000
   834          H     27     DA    H61    834     0.4167      3.024000
   835          H     27     DA    H62    835     0.4167      3.024000
   836         NC     27     DA     N1    836    -0.7624      14.010000
   837         CQ     27     DA     C2    837     0.5716      9.994000
   838         H5     27     DA     H2    838     0.0598      3.024000
   839         NC     27     DA     N3    839    -0.7417      14.010000
   840         CB     27     DA     C4    840       0.38      12.010000
   841         C7     27     DA    C3'    841     0.0713      9.994000
   842         H1     27     DA    H3'    842     0.0985      3.024000
   843         CT     27     DA    C2'    843    -0.0854      7.978000
   844         HC     27     DA   H2'1    844     0.0718      3.024000
   845         HC     27     DA   H2'2    845     0.0718      3.024000
   846         OS     27     DA    O3'    846    -0.5232         16.000000   ; qtot -26.31
; residue  28 DG  rtp DG   q -1.0
   847          P     28     DG      P    847     1.1659      30.970000
   848         O2     28     DG    O1P    848    -0.7761         16.000000
   849         O2     28     DG    O2P    849    -0.7761         16.000000
   850         OS     28     DG    O5'    850    -0.4954         16.000000
   851         CJ     28     DG    C5'    851    -0.0069      7.978000
   852         H1     28     DG   H5'1    852     0.0754      3.024000
   853         H1     28     DG   H5'2    853     0.0754      3.024000
   854         CT     28     DG    C4'    854     0.1629      9.994000
   855         H1     28     DG    H4'    855     0.1176      3.024000
   856         OS     28     DG    O4'    856    -0.3691         16.000000
   857         CT     28     DG    C1'    857     0.0358      9.994000
   858         H2     28     DG    H1'    858     0.1746      3.024000
   859         N*     28     DG     N9    859     0.0577      14.010000
   860         CK     28     DG     C8    860     0.0736      9.994000
   861         H5     28     DG     H8    861     0.1997      3.024000
   862         NB     28     DG     N7    862    -0.5725      14.010000
   863         CB     28     DG     C5    863     0.1991      12.010000
   864          C     28     DG     C6    864     0.4918      12.010000
   865          O     28     DG     O6    865    -0.5699         16.000000
   866         NA     28     DG     N1    866    -0.5053      11.994000
   867          H     28     DG     H1    867      0.352      3.024000
   868         CA     28     DG     C2    868     0.7432      12.010000
   869         N2     28     DG     N2    869     -0.923      9.978000
   870          H     28     DG    H21    870     0.4235      3.024000
   871          H     28     DG    H22    871     0.4235      3.024000
   872         NC     28     DG     N3    872    -0.6636      14.010000
   873         CB     28     DG     C4    873     0.1814      12.010000
   874         C7     28     DG    C3'    874     0.0713      9.994000
   875         H1     28     DG    H3'    875     0.0985      3.024000
   876         CT     28     DG    C2'    876    -0.0854      7.978000
   877         HC     28     DG   H2'1    877     0.0718      3.024000
   878         HC     28     DG   H2'2    878     0.0718      3.024000
   879         OS     28     DG    O3'    879    -0.5232         16.000000   ; qtot -27.31
; residue  29 DC  rtp DC   q -1.0
   880          P     29     DC      P    880     1.1659      30.970000
   881         O2     29     DC    O1P    881    -0.7761         16.000000
   882         O2     29     DC    O2P    882    -0.7761         16.000000
   883         OS     29     DC    O5'    883    -0.4954         16.000000
   884         CJ     29     DC    C5'    884    -0.0069      7.978000
   885         H1     29     DC   H5'1    885     0.0754      3.024000
   886         H1     29     DC   H5'2    886     0.0754      3.024000
   887         CT     29     DC    C4'    887     0.1629      9.994000
   888         H1     29     DC    H4'    888     0.1176      3.024000
   889         OS     29     DC    O4'    889    -0.3691         16.000000
   890         CT     29     DC    C1'    890    -0.0116      9.994000
   891         H2     29     DC    H1'    891     0.1963      3.024000
   892         N*     29     DC     N1    892    -0.0339      14.010000
   893         C1     29     DC     C6    893    -0.0183      9.994000
   894         H4     29     DC     H6    894     0.2293      3.024000
   895         C1     29     DC     C5    895    -0.5222      9.994000
   896         HA     29     DC     H5    896     0.1863      3.024000
   897         CA     29     DC     C4    897     0.8439      12.010000
   898         N2     29     DC     N4    898    -0.9773      9.978000
   899          H     29     DC    H41    899     0.4314      3.024000
   900          H     29     DC    H42    900     0.4314      3.024000
   901         NC     29     DC     N3    901    -0.7748      14.010000
   902          C     29     DC     C2    902     0.7959      12.010000
   903          O     29     DC     O2    903    -0.6548         16.000000
   904         C7     29     DC    C3'    904     0.0713      9.994000
   905         H1     29     DC    H3'    905     0.0985      3.024000
   906         CT     29     DC    C2'    906    -0.0854      7.978000
   907         HC     29     DC   H2'1    907     0.0718      3.024000
   908         HC     29     DC   H2'2    908     0.0718      3.024000
   909         OS     29     DC    O3'    909    -0.5232         16.000000   ; qtot -28.31
; residue  30 DG  rtp DG   q -1.0
   910          P     30     DG      P    910     1.1659      30.970000
   911         O2     30     DG    O1P    911    -0.7761         16.000000
   912         O2     30     DG    O2P    912    -0.7761         16.000000
   913         OS     30     DG    O5'    913    -0.4954         16.000000
   914         CJ     30     DG    C5'    914    -0.0069      7.978000
   915         H1     30     DG   H5'1    915     0.0754      3.024000
   916         H1     30     DG   H5'2    916     0.0754      3.024000
   917         CT     30     DG    C4'    917     0.1629      9.994000
   918         H1     30     DG    H4'    918     0.1176      3.024000
   919         OS     30     DG    O4'    919    -0.3691         16.000000
   920         CT     30     DG    C1'    920     0.0358      9.994000
   921         H2     30     DG    H1'    921     0.1746      3.024000
   922         N*     30     DG     N9    922     0.0577      14.010000
   923         CK     30     DG     C8    923     0.0736      9.994000
   924         H5     30     DG     H8    924     0.1997      3.024000
   925         NB     30     DG     N7    925    -0.5725      14.010000
   926         CB     30     DG     C5    926     0.1991      12.010000
   927          C     30     DG     C6    927     0.4918      12.010000
   928          O     30     DG     O6    928    -0.5699         16.000000
   929         NA     30     DG     N1    929    -0.5053      11.994000
   930          H     30     DG     H1    930      0.352      3.024000
   931         CA     30     DG     C2    931     0.7432      12.010000
   932         N2     30     DG     N2    932     -0.923      9.978000
   933          H     30     DG    H21    933     0.4235      3.024000
   934          H     30     DG    H22    934     0.4235      3.024000
   935         NC     30     DG     N3    935    -0.6636      14.010000
   936         CB     30     DG     C4    936     0.1814      12.010000
   937         C7     30     DG    C3'    937     0.0713      9.994000
   938         H1     30     DG    H3'    938     0.0985      3.024000
   939         CT     30     DG    C2'    939    -0.0854      7.978000
   940         HC     30     DG   H2'1    940     0.0718      3.024000
   941         HC     30     DG   H2'2    941     0.0718      3.024000
   942         OS     30     DG    O3'    942    -0.5232         16.000000   ; qtot -29.31
; residue  31 DA  rtp DA   q -1.0
   943          P     31     DA      P    943     1.1659      30.970000
   944         O2     31     DA    O1P    944    -0.7761         16.000000
   945         O2     31     DA    O2P    945    -0.7761         16.000000
   946         OS     31     DA    O5'    946    -0.4954         16.000000
   947         CJ     31     DA    C5'    947    -0.0069      7.978000
   948         H1     31     DA   H5'1    948     0.0754      3.024000
   949         H1     31     DA   H5'2    949     0.0754      3.024000
   950         CT     31     DA    C4'    950     0.1629      9.994000
   951         H1     31     DA    H4'    951     0.1176      3.024000
   952         OS     31     DA    O4'    952    -0.3691         16.000000
   953         CT     31     DA    C1'    953     0.0431      9.994000
   954         H2     31     DA    H1'    954     0.1838      3.024000
   955         N*     31     DA     N9    955    -0.0268      14.010000
   956         C2     31     DA     C8    956     0.1607      9.994000
   957         H5     31     DA     H8    957     0.1877      3.024000
   958         NB     31     DA     N7    958    -0.6175      14.010000
   959         CB     31     DA     C5    959     0.0725      12.010000
   960         CA     31     DA     C6    960     0.6897      12.010000
   961         N2     31     DA     N6    961    -0.9123      9.978000
   962          H     31     DA    H61    962     0.4167      3.024000
   963          H     31     DA    H62    963     0.4167      3.024000
   964         NC     31     DA     N1    964    -0.7624      14.010000
   965         CQ     31     DA     C2    965     0.5716      9.994000
   966         H5     31     DA     H2    966     0.0598      3.024000
   967         NC     31     DA     N3    967    -0.7417      14.010000
   968         CB     31     DA     C4    968       0.38      12.010000
   969         C7     31     DA    C3'    969     0.0713      9.994000
   970         H1     31     DA    H3'    970     0.0985      3.024000
   971         CT     31     DA    C2'    971    -0.0854      7.978000
   972         HC     31     DA   H2'1    972     0.0718      3.024000
   973         HC     31     DA   H2'2    973     0.0718      3.024000
   974         OS     31     DA    O3'    974    -0.5232         16.000000   ; qtot -30.31
; residue  32 DG  rtp DG   q -1.0
   975          P     32     DG      P    975     1.1659      30.970000
   976         O2     32     DG    O1P    976    -0.7761         16.000000
   977         O2     32     DG    O2P    977    -0.7761         16.000000
   978         OS     32     DG    O5'    978    -0.4954         16.000000
   979         CJ     32     DG    C5'    979    -0.0069      7.978000
   980         H1     32     DG   H5'1    980     0.0754      3.024000
   981         H1     32     DG   H5'2    981     0.0754      3.024000
   982         CT     32     DG    C4'    982     0.1629      9.994000
   983         H1     32     DG    H4'    983     0.1176      3.024000
   984         OS     32     DG    O4'    984    -0.3691         16.000000
   985         CT     32     DG    C1'    985     0.0358      9.994000
   986         H2     32     DG    H1'    986     0.1746      3.024000
   987         N*     32     DG     N9    987     0.0577      14.010000
   988         CK     32     DG     C8    988     0.0736      9.994000
   989         H5     32     DG     H8    989     0.1997      3.024000
   990         NB     32     DG     N7    990    -0.5725      14.010000
   991         CB     32     DG     C5    991     0.1991      12.010000
   992          C     32     DG     C6    992     0.4918      12.010000
   993          O     32     DG     O6    993    -0.5699         16.000000
   994         NA     32     DG     N1    994    -0.5053      11.994000
   995          H     32     DG     H1    995      0.352      3.024000
   996         CA     32     DG     C2    996     0.7432      12.010000
   997         N2     32     DG     N2    997     -0.923      9.978000
   998          H     32     DG    H21    998     0.4235      3.024000
   999          H     32     DG    H22    999     0.4235      3.024000
  1000         NC     32     DG     N3   1000    -0.6636      14.010000
  1001         CB     32     DG     C4   1001     0.1814      12.010000
  1002         C7     32     DG    C3'   1002     0.0713      9.994000
  1003         H1     32     DG    H3'   1003     0.0985      3.024000
  1004         CT     32     DG    C2'   1004    -0.0854      7.978000
  1005         HC     32     DG   H2'1   1005     0.0718      3.024000
  1006         HC     32     DG   H2'2   1006     0.0718      3.024000
  1007         OS     32     DG    O3'   1007    -0.5232         16.000000   ; qtot -31.31
; residue  33 DC  rtp DC   q -1.0
  1008          P     33     DC      P   1008     1.1659      30.970000
  1009         O2     33     DC    O1P   1009    -0.7761         16.000000
  1010         O2     33     DC    O2P   1010    -0.7761         16.000000
  1011         OS     33     DC    O5'   1011    -0.4954         16.000000
  1012         CJ     33     DC    C5'   1012    -0.0069      7.978000
  1013         H1     33     DC   H5'1   1013     0.0754      3.024000
  1014         H1     33     DC   H5'2   1014     0.0754      3.024000
  1015         CT     33     DC    C4'   1015     0.1629      9.994000
  1016         H1     33     DC    H4'   1016     0.1176      3.024000
  1017         OS     33     DC    O4'   1017    -0.3691         16.000000
  1018         CT     33     DC    C1'   1018    -0.0116      9.994000
  1019         H2     33     DC    H1'   1019     0.1963      3.024000
  1020         N*     33     DC     N1   1020    -0.0339      14.010000
  1021         C1     33     DC     C6   1021    -0.0183      9.994000
  1022         H4     33     DC     H6   1022     0.2293      3.024000
  1023         C1     33     DC     C5   1023    -0.5222      9.994000
  1024         HA     33     DC     H5   1024     0.1863      3.024000
  1025         CA     33     DC     C4   1025     0.8439      12.010000
  1026         N2     33     DC     N4   1026    -0.9773      9.978000
  1027          H     33     DC    H41   1027     0.4314      3.024000
  1028          H     33     DC    H42   1028     0.4314      3.024000
  1029         NC     33     DC     N3   1029    -0.7748      14.010000
  1030          C     33     DC     C2   1030     0.7959      12.010000
  1031          O     33     DC     O2   1031    -0.6548         16.000000
  1032         C7     33     DC    C3'   1032     0.0713      9.994000
  1033         H1     33     DC    H3'   1033     0.0985      3.024000
  1034         CT     33     DC    C2'   1034    -0.0854      7.978000
  1035         HC     33     DC   H2'1   1035     0.0718      3.024000
  1036         HC     33     DC   H2'2   1036     0.0718      3.024000
  1037         OS     33     DC    O3'   1037    -0.5232         16.000000   ; qtot -32.31
; residue  34 DG  rtp DG   q -1.0
  1038          P     34     DG      P   1038     1.1659      30.970000
  1039         O2     34     DG    O1P   1039    -0.7761         16.000000
  1040         O2     34     DG    O2P   1040    -0.7761         16.000000
  1041         OS     34     DG    O5'   1041    -0.4954         16.000000
  1042         CJ     34     DG    C5'   1042    -0.0069      7.978000
  1043         H1     34     DG   H5'1   1043     0.0754      3.024000
  1044         H1     34     DG   H5'2   1044     0.0754      3.024000
  1045         CT     34     DG    C4'   1045     0.1629      9.994000
  1046         H1     34     DG    H4'   1046     0.1176      3.024000
  1047         OS     34     DG    O4'   1047    -0.3691         16.000000
  1048         CT     34     DG    C1'   1048     0.0358      9.994000
  1049         H2     34     DG    H1'   1049     0.1746      3.024000
  1050         N*     34     DG     N9   1050     0.0577      14.010000
  1051         CK     34     DG     C8   1051     0.0736      9.994000
  1052         H5     34     DG     H8   1052     0.1997      3.024000
  1053         NB     34     DG     N7   1053    -0.5725      14.010000
  1054         CB     34     DG     C5   1054     0.1991      12.010000
  1055          C     34     DG     C6   1055     0.4918      12.010000
  1056          O     34     DG     O6   1056    -0.5699         16.000000
  1057         NA     34     DG     N1   1057    -0.5053      11.994000
  1058          H     34     DG     H1   1058      0.352      3.024000
  1059         CA     34     DG     C2   1059     0.7432      12.010000
  1060         N2     34     DG     N2   1060     -0.923      9.978000
  1061          H     34     DG    H21   1061     0.4235      3.024000
  1062          H     34     DG    H22   1062     0.4235      3.024000
  1063         NC     34     DG     N3   1063    -0.6636      14.010000
  1064         CB     34     DG     C4   1064     0.1814      12.010000
  1065         C7     34     DG    C3'   1065     0.0713      9.994000
  1066         H1     34     DG    H3'   1066     0.0985      3.024000
  1067         CT     34     DG    C2'   1067    -0.0854      7.978000
  1068         HC     34     DG   H2'1   1068     0.0718      3.024000
  1069         HC     34     DG   H2'2   1069     0.0718      3.024000
  1070         OS     34     DG    O3'   1070    -0.5232         16.000000   ; qtot -33.31
; residue  35 DC  rtp DC   q -1.0
  1071          P     35     DC      P   1071     1.1659      30.970000
  1072         O2     35     DC    O1P   1072    -0.7761         16.000000
  1073         O2     35     DC    O2P   1073    -0.7761         16.000000
  1074         OS     35     DC    O5'   1074    -0.4954         16.000000
  1075         CJ     35     DC    C5'   1075    -0.0069      7.978000
  1076         H1     35     DC   H5'1   1076     0.0754      3.024000
  1077         H1     35     DC   H5'2   1077     0.0754      3.024000
  1078         CT     35     DC    C4'   1078     0.1629      9.994000
  1079         H1     35     DC    H4'   1079     0.1176      3.024000
  1080         OS     35     DC    O4'   1080    -0.3691         16.000000
  1081         CT     35     DC    C1'   1081    -0.0116      9.994000
  1082         H2     35     DC    H1'   1082     0.1963      3.024000
  1083         N*     35     DC     N1   1083    -0.0339      14.010000
  1084         C1     35     DC     C6   1084    -0.0183      9.994000
  1085         H4     35     DC     H6   1085     0.2293      3.024000
  1086         C1     35     DC     C5   1086    -0.5222      9.994000
  1087         HA     35     DC     H5   1087     0.1863      3.024000
  1088         CA     35     DC     C4   1088     0.8439      12.010000
  1089         N2     35     DC     N4   1089    -0.9773      9.978000
  1090          H     35     DC    H41   1090     0.4314      3.024000
  1091          H     35     DC    H42   1091     0.4314      3.024000
  1092         NC     35     DC     N3   1092    -0.7748      14.010000
  1093          C     35     DC     C2   1093     0.7959      12.010000
  1094          O     35     DC     O2   1094    -0.6548         16.000000
  1095         C7     35     DC    C3'   1095     0.0713      9.994000
  1096         H1     35     DC    H3'   1096     0.0985      3.024000
  1097         CT     35     DC    C2'   1097    -0.0854      7.978000
  1098         HC     35     DC   H2'1   1098     0.0718      3.024000
  1099         HC     35     DC   H2'2   1099     0.0718      3.024000
  1100         OS     35     DC    O3'   1100    -0.5232         16.000000   ; qtot -34.31
; residue  36 DG  rtp DG   q -1.0
  1101          P     36     DG      P   1101     1.1659      30.970000
  1102         O2     36     DG    O1P   1102    -0.7761         16.000000
  1103         O2     36     DG    O2P   1103    -0.7761         16.000000
  1104         OS     36     DG    O5'   1104    -0.4954         16.000000
  1105         CJ     36     DG    C5'   1105    -0.0069      7.978000
  1106         H1     36     DG   H5'1   1106     0.0754      3.024000
  1107         H1     36     DG   H5'2   1107     0.0754      3.024000
  1108         CT     36     DG    C4'   1108     0.1629      9.994000
  1109         H1     36     DG    H4'   1109     0.1176      3.024000
  1110         OS     36     DG    O4'   1110    -0.3691         16.000000
  1111         CT     36     DG    C1'   1111     0.0358      9.994000
  1112         H2     36     DG    H1'   1112     0.1746      3.024000
  1113         N*     36     DG     N9   1113     0.0577      14.010000
  1114         CK     36     DG     C8   1114     0.0736      9.994000
  1115         H5     36     DG     H8   1115     0.1997      3.024000
  1116         NB     36     DG     N7   1116    -0.5725      14.010000
  1117         CB     36     DG     C5   1117     0.1991      12.010000
  1118          C     36     DG     C6   1118     0.4918      12.010000
  1119          O     36     DG     O6   1119    -0.5699         16.000000
  1120         NA     36     DG     N1   1120    -0.5053      11.994000
  1121          H     36     DG     H1   1121      0.352      3.024000
  1122         CA     36     DG     C2   1122     0.7432      12.010000
  1123         N2     36     DG     N2   1123     -0.923      9.978000
  1124          H     36     DG    H21   1124     0.4235      3.024000
  1125          H     36     DG    H22   1125     0.4235      3.024000
  1126         NC     36     DG     N3   1126    -0.6636      14.010000
  1127         CB     36     DG     C4   1127     0.1814      12.010000
  1128         C7     36     DG    C3'   1128     0.0713      9.994000
  1129         H1     36     DG    H3'   1129     0.0985      3.024000
  1130         CT     36     DG    C2'   1130    -0.0854      7.978000
  1131         HC     36     DG   H2'1   1131     0.0718      3.024000
  1132         HC     36     DG   H2'2   1132     0.0718      3.024000
  1133         OS     36     DG    O3'   1133    -0.5232         16.000000   ; qtot -35.31
; residue  37 DG  rtp DG   q -1.0
  1134          P     37     DG      P   1134     1.1659      30.970000
  1135         O2     37     DG    O1P   1135    -0.7761         16.000000
  1136         O2     37     DG    O2P   1136    -0.7761         16.000000
  1137         OS     37     DG    O5'   1137    -0.4954         16.000000
  1138         CJ     37     DG    C5'   1138    -0.0069      7.978000
  1139         H1     37     DG   H5'1   1139     0.0754      3.024000
  1140         H1     37     DG   H5'2   1140     0.0754      3.024000
  1141         CT     37     DG    C4'   1141     0.1629      9.994000
  1142         H1     37     DG    H4'   1142     0.1176      3.024000
  1143         OS     37     DG    O4'   1143    -0.3691         16.000000
  1144         CT     37     DG    C1'   1144     0.0358      9.994000
  1145         H2     37     DG    H1'   1145     0.1746      3.024000
  1146         N*     37     DG     N9   1146     0.0577      14.010000
  1147         CK     37     DG     C8   1147     0.0736      9.994000
  1148         H5     37     DG     H8   1148     0.1997      3.024000
  1149         NB     37     DG     N7   1149    -0.5725      14.010000
  1150         CB     37     DG     C5   1150     0.1991      12.010000
  1151          C     37     DG     C6   1151     0.4918      12.010000
  1152          O     37     DG     O6   1152    -0.5699         16.000000
  1153         NA     37     DG     N1   1153    -0.5053      11.994000
  1154          H     37     DG     H1   1154      0.352      3.024000
  1155         CA     37     DG     C2   1155     0.7432      12.010000
  1156         N2     37     DG     N2   1156     -0.923      9.978000
  1157          H     37     DG    H21   1157     0.4235      3.024000
  1158          H     37     DG    H22   1158     0.4235      3.024000
  1159         NC     37     DG     N3   1159    -0.6636      14.010000
  1160         CB     37     DG     C4   1160     0.1814      12.010000
  1161         C7     37     DG    C3'   1161     0.0713      9.994000
  1162         H1     37     DG    H3'   1162     0.0985      3.024000
  1163         CT     37     DG    C2'   1163    -0.0854      7.978000
  1164         HC     37     DG   H2'1   1164     0.0718      3.024000
  1165         HC     37     DG   H2'2   1165     0.0718      3.024000
  1166         OS     37     DG    O3'   1166    -0.5232         16.000000   ; qtot -36.31
; residue  38 DC  rtp DC   q -1.0
  1167          P     38     DC      P   1167     1.1659      30.970000
  1168         O2     38     DC    O1P   1168    -0.7761         16.000000
  1169         O2     38     DC    O2P   1169    -0.7761         16.000000
  1170         OS     38     DC    O5'   1170    -0.4954         16.000000
  1171         CJ     38     DC    C5'   1171    -0.0069      7.978000
  1172         H1     38     DC   H5'1   1172     0.0754      3.024000
  1173         H1     38     DC   H5'2   1173     0.0754      3.024000
  1174         CT     38     DC    C4'   1174     0.1629      9.994000
  1175         H1     38     DC    H4'   1175     0.1176      3.024000
  1176         OS     38     DC    O4'   1176    -0.3691         16.000000
  1177         CT     38     DC    C1'   1177    -0.0116      9.994000
  1178         H2     38     DC    H1'   1178     0.1963      3.024000
  1179         N*     38     DC     N1   1179    -0.0339      14.010000
  1180         C1     38     DC     C6   1180    -0.0183      9.994000
  1181         H4     38     DC     H6   1181     0.2293      3.024000
  1182         C1     38     DC     C5   1182    -0.5222      9.994000
  1183         HA     38     DC     H5   1183     0.1863      3.024000
  1184         CA     38     DC     C4   1184     0.8439      12.010000
  1185         N2     38     DC     N4   1185    -0.9773      9.978000
  1186          H     38     DC    H41   1186     0.4314      3.024000
  1187          H     38     DC    H42   1187     0.4314      3.024000
  1188         NC     38     DC     N3   1188    -0.7748      14.010000
  1189          C     38     DC     C2   1189     0.7959      12.010000
  1190          O     38     DC     O2   1190    -0.6548         16.000000
  1191         C7     38     DC    C3'   1191     0.0713      9.994000
  1192         H1     38     DC    H3'   1192     0.0985      3.024000
  1193         CT     38     DC    C2'   1193    -0.0854      7.978000
  1194         HC     38     DC   H2'1   1194     0.0718      3.024000
  1195         HC     38     DC   H2'2   1195     0.0718      3.024000
  1196         OS     38     DC    O3'   1196    -0.5232         16.000000   ; qtot -37.31
; residue  39 DG  rtp DG   q -1.0
  1197          P     39     DG      P   1197     1.1659      30.970000
  1198         O2     39     DG    O1P   1198    -0.7761         16.000000
  1199         O2     39     DG    O2P   1199    -0.7761         16.000000
  1200         OS     39     DG    O5'   1200    -0.4954         16.000000
  1201         CJ     39     DG    C5'   1201    -0.0069      7.978000
  1202         H1     39     DG   H5'1   1202     0.0754      3.024000
  1203         H1     39     DG   H5'2   1203     0.0754      3.024000
  1204         CT     39     DG    C4'   1204     0.1629      9.994000
  1205         H1     39     DG    H4'   1205     0.1176      3.024000
  1206         OS     39     DG    O4'   1206    -0.3691         16.000000
  1207         CT     39     DG    C1'   1207     0.0358      9.994000
  1208         H2     39     DG    H1'   1208     0.1746      3.024000
  1209         N*     39     DG     N9   1209     0.0577      14.010000
  1210         CK     39     DG     C8   1210     0.0736      9.994000
  1211         H5     39     DG     H8   1211     0.1997      3.024000
  1212         NB     39     DG     N7   1212    -0.5725      14.010000
  1213         CB     39     DG     C5   1213     0.1991      12.010000
  1214          C     39     DG     C6   1214     0.4918      12.010000
  1215          O     39     DG     O6   1215    -0.5699         16.000000
  1216         NA     39     DG     N1   1216    -0.5053      11.994000
  1217          H     39     DG     H1   1217      0.352      3.024000
  1218         CA     39     DG     C2   1218     0.7432      12.010000
  1219         N2     39     DG     N2   1219     -0.923      9.978000
  1220          H     39     DG    H21   1220     0.4235      3.024000
  1221          H     39     DG    H22   1221     0.4235      3.024000
  1222         NC     39     DG     N3   1222    -0.6636      14.010000
  1223         CB     39     DG     C4   1223     0.1814      12.010000
  1224         C7     39     DG    C3'   1224     0.0713      9.994000
  1225         H1     39     DG    H3'   1225     0.0985      3.024000
  1226         CT     39     DG    C2'   1226    -0.0854      7.978000
  1227         HC     39     DG   H2'1   1227     0.0718      3.024000
  1228         HC     39     DG   H2'2   1228     0.0718      3.024000
  1229         OS     39     DG    O3'   1229    -0.5232         16.000000   ; qtot -38.31
; residue  40 DC  rtp DC   q -1.0
  1230          P     40     DC      P   1230     1.1659      30.970000
  1231         O2     40     DC    O1P   1231    -0.7761         16.000000
  1232         O2     40     DC    O2P   1232    -0.7761         16.000000
  1233         OS     40     DC    O5'   1233    -0.4954         16.000000
  1234         CJ     40     DC    C5'   1234    -0.0069      7.978000
  1235         H1     40     DC   H5'1   1235     0.0754      3.024000
  1236         H1     40     DC   H5'2   1236     0.0754      3.024000
  1237         CT     40     DC    C4'   1237     0.1629      9.994000
  1238         H1     40     DC    H4'   1238     0.1176      3.024000
  1239         OS     40     DC    O4'   1239    -0.3691         16.000000
  1240         CT     40     DC    C1'   1240    -0.0116      9.994000
  1241         H2     40     DC    H1'   1241     0.1963      3.024000
  1242         N*     40     DC     N1   1242    -0.0339      14.010000
  1243         C1     40     DC     C6   1243    -0.0183      9.994000
  1244         H4     40     DC     H6   1244     0.2293      3.024000
  1245         C1     40     DC     C5   1245    -0.5222      9.994000
  1246         HA     40     DC     H5   1246     0.1863      3.024000
  1247         CA     40     DC     C4   1247     0.8439      12.010000
  1248         N2     40     DC     N4   1248    -0.9773      9.978000
  1249          H     40     DC    H41   1249     0.4314      3.024000
  1250          H     40     DC    H42   1250     0.4314      3.024000
  1251         NC     40     DC     N3   1251    -0.7748      14.010000
  1252          C     40     DC     C2   1252     0.7959      12.010000
  1253          O     40     DC     O2   1253    -0.6548         16.000000
  1254         C7     40     DC    C3'   1254     0.0713      9.994000
  1255         H1     40     DC    H3'   1255     0.0985      3.024000
  1256         CT     40     DC    C2'   1256    -0.0854      7.978000
  1257         HC     40     DC   H2'1   1257     0.0718      3.024000
  1258         HC     40     DC   H2'2   1258     0.0718      3.024000
  1259         OS     40     DC    O3'   1259    -0.5232         16.000000   ; qtot -39.31
; residue  41 DA  rtp DA   q -1.0
  1260          P     41     DA      P   1260     1.1659      30.970000
  1261         O2     41     DA    O1P   1261    -0.7761         16.000000
  1262         O2     41     DA    O2P   1262    -0.7761         16.000000
  1263         OS     41     DA    O5'   1263    -0.4954         16.000000
  1264         CJ     41     DA    C5'   1264    -0.0069      7.978000
  1265         H1     41     DA   H5'1   1265     0.0754      3.024000
  1266         H1     41     DA   H5'2   1266     0.0754      3.024000
  1267         CT     41     DA    C4'   1267     0.1629      9.994000
  1268         H1     41     DA    H4'   1268     0.1176      3.024000
  1269         OS     41     DA    O4'   1269    -0.3691         16.000000
  1270         CT     41     DA    C1'   1270     0.0431      9.994000
  1271         H2     41     DA    H1'   1271     0.1838      3.024000
  1272         N*     41     DA     N9   1272    -0.0268      14.010000
  1273         C2     41     DA     C8   1273     0.1607      9.994000
  1274         H5     41     DA     H8   1274     0.1877      3.024000
  1275         NB     41     DA     N7   1275    -0.6175      14.010000
  1276         CB     41     DA     C5   1276     0.0725      12.010000
  1277         CA     41     DA     C6   1277     0.6897      12.010000
  1278         N2     41     DA     N6   1278    -0.9123      9.978000
  1279          H     41     DA    H61   1279     0.4167      3.024000
  1280          H     41     DA    H62   1280     0.4167      3.024000
  1281         NC     41     DA     N1   1281    -0.7624      14.010000
  1282         CQ     41     DA     C2   1282     0.5716      9.994000
  1283         H5     41     DA     H2   1283     0.0598      3.024000
  1284         NC     41     DA     N3   1284    -0.7417      14.010000
  1285         CB     41     DA     C4   1285       0.38      12.010000
  1286         C7     41     DA    C3'   1286     0.0713      9.994000
  1287         H1     41     DA    H3'   1287     0.0985      3.024000
  1288         CT     41     DA    C2'   1288    -0.0854      7.978000
  1289         HC     41     DA   H2'1   1289     0.0718      3.024000
  1290         HC     41     DA   H2'2   1290     0.0718      3.024000
  1291         OS     41     DA    O3'   1291    -0.5232         16.000000   ; qtot -40.31
; residue  42 DG  rtp DG   q -1.0
  1292          P     42     DG      P   1292     1.1659      30.970000
  1293         O2     42     DG    O1P   1293    -0.7761         16.000000
  1294         O2     42     DG    O2P   1294    -0.7761         16.000000
  1295         OS     42     DG    O5'   1295    -0.4954         16.000000
  1296         CJ     42     DG    C5'   1296    -0.0069      7.978000
  1297         H1     42     DG   H5'1   1297     0.0754      3.024000
  1298         H1     42     DG   H5'2   1298     0.0754      3.024000
  1299         CT     42     DG    C4'   1299     0.1629      9.994000
  1300         H1     42     DG    H4'   1300     0.1176      3.024000
  1301         OS     42     DG    O4'   1301    -0.3691         16.000000
  1302         CT     42     DG    C1'   1302     0.0358      9.994000
  1303         H2     42     DG    H1'   1303     0.1746      3.024000
  1304         N*     42     DG     N9   1304     0.0577      14.010000
  1305         CK     42     DG     C8   1305     0.0736      9.994000
  1306         H5     42     DG     H8   1306     0.1997      3.024000
  1307         NB     42     DG     N7   1307    -0.5725      14.010000
  1308         CB     42     DG     C5   1308     0.1991      12.010000
  1309          C     42     DG     C6   1309     0.4918      12.010000
  1310          O     42     DG     O6   1310    -0.5699         16.000000
  1311         NA     42     DG     N1   1311    -0.5053      11.994000
  1312          H     42     DG     H1   1312      0.352      3.024000
  1313         CA     42     DG     C2   1313     0.7432      12.010000
  1314         N2     42     DG     N2   1314     -0.923      9.978000
  1315          H     42     DG    H21   1315     0.4235      3.024000
  1316          H     42     DG    H22   1316     0.4235      3.024000
  1317         NC     42     DG     N3   1317    -0.6636      14.010000
  1318         CB     42     DG     C4   1318     0.1814      12.010000
  1319         C7     42     DG    C3'   1319     0.0713      9.994000
  1320         H1     42     DG    H3'   1320     0.0985      3.024000
  1321         CT     42     DG    C2'   1321    -0.0854      7.978000
  1322         HC     42     DG   H2'1   1322     0.0718      3.024000
  1323         HC     42     DG   H2'2   1323     0.0718      3.024000
  1324         OS     42     DG    O3'   1324    -0.5232         16.000000   ; qtot -41.31
; residue  43 DG  rtp DG   q -1.0
  1325          P     43     DG      P   1325     1.1659      30.970000
  1326         O2     43     DG    O1P   1326    -0.7761         16.000000
  1327         O2     43     DG    O2P   1327    -0.7761         16.000000
  1328         OS     43     DG    O5'   1328    -0.4954         16.000000
  1329         CJ     43     DG    C5'   1329    -0.0069      7.978000
  1330         H1     43     DG   H5'1   1330     0.0754      3.024000
  1331         H1     43     DG   H5'2   1331     0.0754      3.024000
  1332         CT     43     DG    C4'   1332     0.1629      9.994000
  1333         H1     43     DG    H4'   1333     0.1176      3.024000
  1334         OS     43     DG    O4'   1334    -0.3691         16.000000
  1335         CT     43     DG    C1'   1335     0.0358      9.994000
  1336         H2     43     DG    H1'   1336     0.1746      3.024000
  1337         N*     43     DG     N9   1337     0.0577      14.010000
  1338         CK     43     DG     C8   1338     0.0736      9.994000
  1339         H5     43     DG     H8   1339     0.1997      3.024000
  1340         NB     43     DG     N7   1340    -0.5725      14.010000
  1341         CB     43     DG     C5   1341     0.1991      12.010000
  1342          C     43     DG     C6   1342     0.4918      12.010000
  1343          O     43     DG     O6   1343    -0.5699         16.000000
  1344         NA     43     DG     N1   1344    -0.5053      11.994000
  1345          H     43     DG     H1   1345      0.352      3.024000
  1346         CA     43     DG     C2   1346     0.7432      12.010000
  1347         N2     43     DG     N2   1347     -0.923      9.978000
  1348          H     43     DG    H21   1348     0.4235      3.024000
  1349          H     43     DG    H22   1349     0.4235      3.024000
  1350         NC     43     DG     N3   1350    -0.6636      14.010000
  1351         CB     43     DG     C4   1351     0.1814      12.010000
  1352         C7     43     DG    C3'   1352     0.0713      9.994000
  1353         H1     43     DG    H3'   1353     0.0985      3.024000
  1354         CT     43     DG    C2'   1354    -0.0854      7.978000
  1355         HC     43     DG   H2'1   1355     0.0718      3.024000
  1356         HC     43     DG   H2'2   1356     0.0718      3.024000
  1357         OS     43     DG    O3'   1357    -0.5232         16.000000   ; qtot -42.31
; residue  44 DC  rtp DC   q -1.0
  1358          P     44     DC      P   1358     1.1659      30.970000
  1359         O2     44     DC    O1P   1359    -0.7761         16.000000
  1360         O2     44     DC    O2P   1360    -0.7761         16.000000
  1361         OS     44     DC    O5'   1361    -0.4954         16.000000
  1362         CJ     44     DC    C5'   1362    -0.0069      7.978000
  1363         H1     44     DC   H5'1   1363     0.0754      3.024000
  1364         H1     44     DC   H5'2   1364     0.0754      3.024000
  1365         CT     44     DC    C4'   1365     0.1629      9.994000
  1366         H1     44     DC    H4'   1366     0.1176      3.024000
  1367         OS     44     DC    O4'   1367    -0.3691         16.000000
  1368         CT     44     DC    C1'   1368    -0.0116      9.994000
  1369         H2     44     DC    H1'   1369     0.1963      3.024000
  1370         N*     44     DC     N1   1370    -0.0339      14.010000
  1371         C1     44     DC     C6   1371    -0.0183      9.994000
  1372         H4     44     DC     H6   1372     0.2293      3.024000
  1373         C1     44     DC     C5   1373    -0.5222      9.994000
  1374         HA     44     DC     H5   1374     0.1863      3.024000
  1375         CA     44     DC     C4   1375     0.8439      12.010000
  1376         N2     44     DC     N4   1376    -0.9773      9.978000
  1377          H     44     DC    H41   1377     0.4314      3.024000
  1378          H     44     DC    H42   1378     0.4314      3.024000
  1379         NC     44     DC     N3   1379    -0.7748      14.010000
  1380          C     44     DC     C2   1380     0.7959      12.010000
  1381          O     44     DC     O2   1381    -0.6548         16.000000
  1382         C7     44     DC    C3'   1382     0.0713      9.994000
  1383         H1     44     DC    H3'   1383     0.0985      3.024000
  1384         CT     44     DC    C2'   1384    -0.0854      7.978000
  1385         HC     44     DC   H2'1   1385     0.0718      3.024000
  1386         HC     44     DC   H2'2   1386     0.0718      3.024000
  1387         OS     44     DC    O3'   1387    -0.5232         16.000000   ; qtot -43.31
; residue  45 DA  rtp DA   q -1.0
  1388          P     45     DA      P   1388     1.1659      30.970000
  1389         O2     45     DA    O1P   1389    -0.7761         16.000000
  1390         O2     45     DA    O2P   1390    -0.7761         16.000000
  1391         OS     45     DA    O5'   1391    -0.4954         16.000000
  1392         CJ     45     DA    C5'   1392    -0.0069      7.978000
  1393         H1     45     DA   H5'1   1393     0.0754      3.024000
  1394         H1     45     DA   H5'2   1394     0.0754      3.024000
  1395         CT     45     DA    C4'   1395     0.1629      9.994000
  1396         H1     45     DA    H4'   1396     0.1176      3.024000
  1397         OS     45     DA    O4'   1397    -0.3691         16.000000
  1398         CT     45     DA    C1'   1398     0.0431      9.994000
  1399         H2     45     DA    H1'   1399     0.1838      3.024000
  1400         N*     45     DA     N9   1400    -0.0268      14.010000
  1401         C2     45     DA     C8   1401     0.1607      9.994000
  1402         H5     45     DA     H8   1402     0.1877      3.024000
  1403         NB     45     DA     N7   1403    -0.6175      14.010000
  1404         CB     45     DA     C5   1404     0.0725      12.010000
  1405         CA     45     DA     C6   1405     0.6897      12.010000
  1406         N2     45     DA     N6   1406    -0.9123      9.978000
  1407          H     45     DA    H61   1407     0.4167      3.024000
  1408          H     45     DA    H62   1408     0.4167      3.024000
  1409         NC     45     DA     N1   1409    -0.7624      14.010000
  1410         CQ     45     DA     C2   1410     0.5716      9.994000
  1411         H5     45     DA     H2   1411     0.0598      3.024000
  1412         NC     45     DA     N3   1412    -0.7417      14.010000
  1413         CB     45     DA     C4   1413       0.38      12.010000
  1414         C7     45     DA    C3'   1414     0.0713      9.994000
  1415         H1     45     DA    H3'   1415     0.0985      3.024000
  1416         CT     45     DA    C2'   1416    -0.0854      7.978000
  1417         HC     45     DA   H2'1   1417     0.0718      3.024000
  1418         HC     45     DA   H2'2   1418     0.0718      3.024000
  1419         OS     45     DA    O3'   1419    -0.5232         16.000000   ; qtot -44.31
; residue  46 DC  rtp DC   q -1.0
  1420          P     46     DC      P   1420     1.1659      30.970000
  1421         O2     46     DC    O1P   1421    -0.7761         16.000000
  1422         O2     46     DC    O2P   1422    -0.7761         16.000000
  1423         OS     46     DC    O5'   1423    -0.4954         16.000000
  1424         CJ     46     DC    C5'   1424    -0.0069      7.978000
  1425         H1     46     DC   H5'1   1425     0.0754      3.024000
  1426         H1     46     DC   H5'2   1426     0.0754      3.024000
  1427         CT     46     DC    C4'   1427     0.1629      9.994000
  1428         H1     46     DC    H4'   1428     0.1176      3.024000
  1429         OS     46     DC    O4'   1429    -0.3691         16.000000
  1430         CT     46     DC    C1'   1430    -0.0116      9.994000
  1431         H2     46     DC    H1'   1431     0.1963      3.024000
  1432         N*     46     DC     N1   1432    -0.0339      14.010000
  1433         C1     46     DC     C6   1433    -0.0183      9.994000
  1434         H4     46     DC     H6   1434     0.2293      3.024000
  1435         C1     46     DC     C5   1435    -0.5222      9.994000
  1436         HA     46     DC     H5   1436     0.1863      3.024000
  1437         CA     46     DC     C4   1437     0.8439      12.010000
  1438         N2     46     DC     N4   1438    -0.9773      9.978000
  1439          H     46     DC    H41   1439     0.4314      3.024000
  1440          H     46     DC    H42   1440     0.4314      3.024000
  1441         NC     46     DC     N3   1441    -0.7748      14.010000
  1442          C     46     DC     C2   1442     0.7959      12.010000
  1443          O     46     DC     O2   1443    -0.6548         16.000000
  1444         C7     46     DC    C3'   1444     0.0713      9.994000
  1445         H1     46     DC    H3'   1445     0.0985      3.024000
  1446         CT     46     DC    C2'   1446    -0.0854      7.978000
  1447         HC     46     DC   H2'1   1447     0.0718      3.024000
  1448         HC     46     DC   H2'2   1448     0.0718      3.024000
  1449         OS     46     DC    O3'   1449    -0.5232         16.000000   ; qtot -45.31
; residue  47 DT  rtp DT   q -1.0
  1450          P     47     DT      P   1450     1.1659      30.970000
  1451         O2     47     DT    O1P   1451    -0.7761         16.000000
  1452         O2     47     DT    O2P   1452    -0.7761         16.000000
  1453         OS     47     DT    O5'   1453    -0.4954         16.000000
  1454         CJ     47     DT    C5'   1454    -0.0069      7.978000
  1455         H1     47     DT   H5'1   1455     0.0754      3.024000
  1456         H1     47     DT   H5'2   1456     0.0754      3.024000
  1457         CT     47     DT    C4'   1457     0.1629      9.994000
  1458         H1     47     DT    H4'   1458     0.1176      3.024000
  1459         OS     47     DT    O4'   1459    -0.3691         16.000000
  1460         CT     47     DT    C1'   1460      0.068      9.994000
  1461         H2     47     DT    H1'   1461     0.1804      3.024000
  1462         N*     47     DT     N1   1462    -0.0239      14.010000
  1463         CM     47     DT     C6   1463    -0.2209      9.994000
  1464         H4     47     DT     H6   1464     0.2607      3.024000
  1465         CM     47     DT     C5   1465     0.0025      12.010000
  1466         CT     47     DT     C7   1466    -0.2269      5.962000
  1467         HC     47     DT    H71   1467      0.077      3.024000
  1468         HC     47     DT    H72   1468      0.077      3.024000
  1469         HC     47     DT    H73   1469      0.077      3.024000
  1470          C     47     DT     C4   1470     0.5194      12.010000
  1471          O     47     DT     O4   1471    -0.5563         16.000000
  1472         NA     47     DT     N3   1472     -0.434      11.994000
  1473          H     47     DT     H3   1473      0.342      3.024000
  1474          C     47     DT     C2   1474     0.5677      12.010000
  1475          O     47     DT     O2   1475    -0.5881         16.000000
  1476         C7     47     DT    C3'   1476     0.0713      9.994000
  1477         H1     47     DT    H3'   1477     0.0985      3.024000
  1478         CT     47     DT    C2'   1478    -0.0854      7.978000
  1479         HC     47     DT   H2'1   1479     0.0718      3.024000
  1480         HC     47     DT   H2'2   1480     0.0718      3.024000
  1481         OS     47     DT    O3'   1481    -0.5232         16.000000   ; qtot -46.31
; residue  48 DG  rtp DG   q -1.0
  1482          P     48     DG      P   1482     1.1659      30.970000
  1483         O2     48     DG    O1P   1483    -0.7761         16.000000
  1484         O2     48     DG    O2P   1484    -0.7761         16.000000
  1485         OS     48     DG    O5'   1485    -0.4954         16.000000
  1486         CJ     48     DG    C5'   1486    -0.0069      7.978000
  1487         H1     48     DG   H5'1   1487     0.0754      3.024000
  1488         H1     48     DG   H5'2   1488     0.0754      3.024000
  1489         CT     48     DG    C4'   1489     0.1629      9.994000
  1490         H1     48     DG    H4'   1490     0.1176      3.024000
  1491         OS     48     DG    O4'   1491    -0.3691         16.000000
  1492         CT     48     DG    C1'   1492     0.0358      9.994000
  1493         H2     48     DG    H1'   1493     0.1746      3.024000
  1494         N*     48     DG     N9   1494     0.0577      14.010000
  1495         CK     48     DG     C8   1495     0.0736      9.994000
  1496         H5     48     DG     H8   1496     0.1997      3.024000
  1497         NB     48     DG     N7   1497    -0.5725      14.010000
  1498         CB     48     DG     C5   1498     0.1991      12.010000
  1499          C     48     DG     C6   1499     0.4918      12.010000
  1500          O     48     DG     O6   1500    -0.5699         16.000000
  1501         NA     48     DG     N1   1501    -0.5053      11.994000
  1502          H     48     DG     H1   1502      0.352      3.024000
  1503         CA     48     DG     C2   1503     0.7432      12.010000
  1504         N2     48     DG     N2   1504     -0.923      9.978000
  1505          H     48     DG    H21   1505     0.4235      3.024000
  1506          H     48     DG    H22   1506     0.4235      3.024000
  1507         NC     48     DG     N3   1507    -0.6636      14.010000
  1508         CB     48     DG     C4   1508     0.1814      12.010000
  1509         C7     48     DG    C3'   1509     0.0713      9.994000
  1510         H1     48     DG    H3'   1510     0.0985      3.024000
  1511         CT     48     DG    C2'   1511    -0.0854      7.978000
  1512         HC     48     DG   H2'1   1512     0.0718      3.024000
  1513         HC     48     DG   H2'2   1513     0.0718      3.024000
  1514         OS     48     DG    O3'   1514    -0.5232         16.000000   ; qtot -47.31
; residue  49 DA  rtp DA   q -1.0
  1515          P     49     DA      P   1515     1.1659      30.970000
  1516         O2     49     DA    O1P   1516    -0.7761         16.000000
  1517         O2     49     DA    O2P   1517    -0.7761         16.000000
  1518         OS     49     DA    O5'   1518    -0.4954         16.000000
  1519         CJ     49     DA    C5'   1519    -0.0069      7.978000
  1520         H1     49     DA   H5'1   1520     0.0754      3.024000
  1521         H1     49     DA   H5'2   1521     0.0754      3.024000
  1522         CT     49     DA    C4'   1522     0.1629      9.994000
  1523         H1     49     DA    H4'   1523     0.1176      3.024000
  1524         OS     49     DA    O4'   1524    -0.3691         16.000000
  1525         CT     49     DA    C1'   1525     0.0431      9.994000
  1526         H2     49     DA    H1'   1526     0.1838      3.024000
  1527         N*     49     DA     N9   1527    -0.0268      14.010000
  1528         C2     49     DA     C8   1528     0.1607      9.994000
  1529         H5     49     DA     H8   1529     0.1877      3.024000
  1530         NB     49     DA     N7   1530    -0.6175      14.010000
  1531         CB     49     DA     C5   1531     0.0725      12.010000
  1532         CA     49     DA     C6   1532     0.6897      12.010000
  1533         N2     49     DA     N6   1533    -0.9123      9.978000
  1534          H     49     DA    H61   1534     0.4167      3.024000
  1535          H     49     DA    H62   1535     0.4167      3.024000
  1536         NC     49     DA     N1   1536    -0.7624      14.010000
  1537         CQ     49     DA     C2   1537     0.5716      9.994000
  1538         H5     49     DA     H2   1538     0.0598      3.024000
  1539         NC     49     DA     N3   1539    -0.7417      14.010000
  1540         CB     49     DA     C4   1540       0.38      12.010000
  1541         C7     49     DA    C3'   1541     0.0713      9.994000
  1542         H1     49     DA    H3'   1542     0.0985      3.024000
  1543         CT     49     DA    C2'   1543    -0.0854      7.978000
  1544         HC     49     DA   H2'1   1544     0.0718      3.024000
  1545         HC     49     DA   H2'2   1545     0.0718      3.024000
  1546         OS     49     DA    O3'   1546    -0.5232         16.000000   ; qtot -48.31
; residue  50 DA  rtp DA   q -1.0
  1547          P     50     DA      P   1547     1.1659      30.970000
  1548         O2     50     DA    O1P   1548    -0.7761         16.000000
  1549         O2     50     DA    O2P   1549    -0.7761         16.000000
  1550         OS     50     DA    O5'   1550    -0.4954         16.000000
  1551         CJ     50     DA    C5'   1551    -0.0069      7.978000
  1552         H1     50     DA   H5'1   1552     0.0754      3.024000
  1553         H1     50     DA   H5'2   1553     0.0754      3.024000
  1554         CT     50     DA    C4'   1554     0.1629      9.994000
  1555         H1     50     DA    H4'   1555     0.1176      3.024000
  1556         OS     50     DA    O4'   1556    -0.3691         16.000000
  1557         CT     50     DA    C1'   1557     0.0431      9.994000
  1558         H2     50     DA    H1'   1558     0.1838      3.024000
  1559         N*     50     DA     N9   1559    -0.0268      14.010000
  1560         C2     50     DA     C8   1560     0.1607      9.994000
  1561         H5     50     DA     H8   1561     0.1877      3.024000
  1562         NB     50     DA     N7   1562    -0.6175      14.010000
  1563         CB     50     DA     C5   1563     0.0725      12.010000
  1564         CA     50     DA     C6   1564     0.6897      12.010000
  1565         N2     50     DA     N6   1565    -0.9123      9.978000
  1566          H     50     DA    H61   1566     0.4167      3.024000
  1567          H     50     DA    H62   1567     0.4167      3.024000
  1568         NC     50     DA     N1   1568    -0.7624      14.010000
  1569         CQ     50     DA     C2   1569     0.5716      9.994000
  1570         H5     50     DA     H2   1570     0.0598      3.024000
  1571         NC     50     DA     N3   1571    -0.7417      14.010000
  1572         CB     50     DA     C4   1572       0.38      12.010000
  1573         C7     50     DA    C3'   1573     0.0713      9.994000
  1574         H1     50     DA    H3'   1574     0.0985      3.024000
  1575         CT     50     DA    C2'   1575    -0.0854      7.978000
  1576         HC     50     DA   H2'1   1576     0.0718      3.024000
  1577         HC     50     DA   H2'2   1577     0.0718      3.024000
  1578         OS     50     DA    O3'   1578    -0.5232         16.000000   ; qtot -49.31
; residue  51 DG  rtp DG   q -1.0
  1579          P     51     DG      P   1579     1.1659      30.970000
  1580         O2     51     DG    O1P   1580    -0.7761         16.000000
  1581         O2     51     DG    O2P   1581    -0.7761         16.000000
  1582         OS     51     DG    O5'   1582    -0.4954         16.000000
  1583         CJ     51     DG    C5'   1583    -0.0069      7.978000
  1584         H1     51     DG   H5'1   1584     0.0754      3.024000
  1585         H1     51     DG   H5'2   1585     0.0754      3.024000
  1586         CT     51     DG    C4'   1586     0.1629      9.994000
  1587         H1     51     DG    H4'   1587     0.1176      3.024000
  1588         OS     51     DG    O4'   1588    -0.3691         16.000000
  1589         CT     51     DG    C1'   1589     0.0358      9.994000
  1590         H2     51     DG    H1'   1590     0.1746      3.024000
  1591         N*     51     DG     N9   1591     0.0577      14.010000
  1592         CK     51     DG     C8   1592     0.0736      9.994000
  1593         H5     51     DG     H8   1593     0.1997      3.024000
  1594         NB     51     DG     N7   1594    -0.5725      14.010000
  1595         CB     51     DG     C5   1595     0.1991      12.010000
  1596          C     51     DG     C6   1596     0.4918      12.010000
  1597          O     51     DG     O6   1597    -0.5699         16.000000
  1598         NA     51     DG     N1   1598    -0.5053      11.994000
  1599          H     51     DG     H1   1599      0.352      3.024000
  1600         CA     51     DG     C2   1600     0.7432      12.010000
  1601         N2     51     DG     N2   1601     -0.923      9.978000
  1602          H     51     DG    H21   1602     0.4235      3.024000
  1603          H     51     DG    H22   1603     0.4235      3.024000
  1604         NC     51     DG     N3   1604    -0.6636      14.010000
  1605         CB     51     DG     C4   1605     0.1814      12.010000
  1606         C7     51     DG    C3'   1606     0.0713      9.994000
  1607         H1     51     DG    H3'   1607     0.0985      3.024000
  1608         CT     51     DG    C2'   1608    -0.0854      7.978000
  1609         HC     51     DG   H2'1   1609     0.0718      3.024000
  1610         HC     51     DG   H2'2   1610     0.0718      3.024000
  1611         OS     51     DG    O3'   1611    -0.5232         16.000000   ; qtot -50.31
; residue  52 DG  rtp DG   q -1.0
  1612          P     52     DG      P   1612     1.1659      30.970000
  1613         O2     52     DG    O1P   1613    -0.7761         16.000000
  1614         O2     52     DG    O2P   1614    -0.7761         16.000000
  1615         OS     52     DG    O5'   1615    -0.4954         16.000000
  1616         CJ     52     DG    C5'   1616    -0.0069      7.978000
  1617         H1     52     DG   H5'1   1617     0.0754      3.024000
  1618         H1     52     DG   H5'2   1618     0.0754      3.024000
  1619         CT     52     DG    C4'   1619     0.1629      9.994000
  1620         H1     52     DG    H4'   1620     0.1176      3.024000
  1621         OS     52     DG    O4'   1621    -0.3691         16.000000
  1622         CT     52     DG    C1'   1622     0.0358      9.994000
  1623         H2     52     DG    H1'   1623     0.1746      3.024000
  1624         N*     52     DG     N9   1624     0.0577      14.010000
  1625         CK     52     DG     C8   1625     0.0736      9.994000
  1626         H5     52     DG     H8   1626     0.1997      3.024000
  1627         NB     52     DG     N7   1627    -0.5725      14.010000
  1628         CB     52     DG     C5   1628     0.1991      12.010000
  1629          C     52     DG     C6   1629     0.4918      12.010000
  1630          O     52     DG     O6   1630    -0.5699         16.000000
  1631         NA     52     DG     N1   1631    -0.5053      11.994000
  1632          H     52     DG     H1   1632      0.352      3.024000
  1633         CA     52     DG     C2   1633     0.7432      12.010000
  1634         N2     52     DG     N2   1634     -0.923      9.978000
  1635          H     52     DG    H21   1635     0.4235      3.024000
  1636          H     52     DG    H22   1636     0.4235      3.024000
  1637         NC     52     DG     N3   1637    -0.6636      14.010000
  1638         CB     52     DG     C4   1638     0.1814      12.010000
  1639         C7     52     DG    C3'   1639     0.0713      9.994000
  1640         H1     52     DG    H3'   1640     0.0985      3.024000
  1641         CT     52     DG    C2'   1641    -0.0854      7.978000
  1642         HC     52     DG   H2'1   1642     0.0718      3.024000
  1643         HC     52     DG   H2'2   1643     0.0718      3.024000
  1644         OS     52     DG    O3'   1644    -0.5232         16.000000   ; qtot -51.31
; residue  53 DC  rtp DC   q -1.0
  1645          P     53     DC      P   1645     1.1659      30.970000
  1646         O2     53     DC    O1P   1646    -0.7761         16.000000
  1647         O2     53     DC    O2P   1647    -0.7761         16.000000
  1648         OS     53     DC    O5'   1648    -0.4954         16.000000
  1649         CJ     53     DC    C5'   1649    -0.0069      7.978000
  1650         H1     53     DC   H5'1   1650     0.0754      3.024000
  1651         H1     53     DC   H5'2   1651     0.0754      3.024000
  1652         CT     53     DC    C4'   1652     0.1629      9.994000
  1653         H1     53     DC    H4'   1653     0.1176      3.024000
  1654         OS     53     DC    O4'   1654    -0.3691         16.000000
  1655         CT     53     DC    C1'   1655    -0.0116      9.994000
  1656         H2     53     DC    H1'   1656     0.1963      3.024000
  1657         N*     53     DC     N1   1657    -0.0339      14.010000
  1658         C1     53     DC     C6   1658    -0.0183      9.994000
  1659         H4     53     DC     H6   1659     0.2293      3.024000
  1660         C1     53     DC     C5   1660    -0.5222      9.994000
  1661         HA     53     DC     H5   1661     0.1863      3.024000
  1662         CA     53     DC     C4   1662     0.8439      12.010000
  1663         N2     53     DC     N4   1663    -0.9773      9.978000
  1664          H     53     DC    H41   1664     0.4314      3.024000
  1665          H     53     DC    H42   1665     0.4314      3.024000
  1666         NC     53     DC     N3   1666    -0.7748      14.010000
  1667          C     53     DC     C2   1667     0.7959      12.010000
  1668          O     53     DC     O2   1668    -0.6548         16.000000
  1669         C7     53     DC    C3'   1669     0.0713      9.994000
  1670         H1     53     DC    H3'   1670     0.0985      3.024000
  1671         CT     53     DC    C2'   1671    -0.0854      7.978000
  1672         HC     53     DC   H2'1   1672     0.0718      3.024000
  1673         HC     53     DC   H2'2   1673     0.0718      3.024000
  1674         OS     53     DC    O3'   1674    -0.5232         16.000000   ; qtot -52.31
; residue  54 DG  rtp DG   q -1.0
  1675          P     54     DG      P   1675     1.1659      30.970000
  1676         O2     54     DG    O1P   1676    -0.7761         16.000000
  1677         O2     54     DG    O2P   1677    -0.7761         16.000000
  1678         OS     54     DG    O5'   1678    -0.4954         16.000000
  1679         CJ     54     DG    C5'   1679    -0.0069      7.978000
  1680         H1     54     DG   H5'1   1680     0.0754      3.024000
  1681         H1     54     DG   H5'2   1681     0.0754      3.024000
  1682         CT     54     DG    C4'   1682     0.1629      9.994000
  1683         H1     54     DG    H4'   1683     0.1176      3.024000
  1684         OS     54     DG    O4'   1684    -0.3691         16.000000
  1685         CT     54     DG    C1'   1685     0.0358      9.994000
  1686         H2     54     DG    H1'   1686     0.1746      3.024000
  1687         N*     54     DG     N9   1687     0.0577      14.010000
  1688         CK     54     DG     C8   1688     0.0736      9.994000
  1689         H5     54     DG     H8   1689     0.1997      3.024000
  1690         NB     54     DG     N7   1690    -0.5725      14.010000
  1691         CB     54     DG     C5   1691     0.1991      12.010000
  1692          C     54     DG     C6   1692     0.4918      12.010000
  1693          O     54     DG     O6   1693    -0.5699         16.000000
  1694         NA     54     DG     N1   1694    -0.5053      11.994000
  1695          H     54     DG     H1   1695      0.352      3.024000
  1696         CA     54     DG     C2   1696     0.7432      12.010000
  1697         N2     54     DG     N2   1697     -0.923      9.978000
  1698          H     54     DG    H21   1698     0.4235      3.024000
  1699          H     54     DG    H22   1699     0.4235      3.024000
  1700         NC     54     DG     N3   1700    -0.6636      14.010000
  1701         CB     54     DG     C4   1701     0.1814      12.010000
  1702         C7     54     DG    C3'   1702     0.0713      9.994000
  1703         H1     54     DG    H3'   1703     0.0985      3.024000
  1704         CT     54     DG    C2'   1704    -0.0854      7.978000
  1705         HC     54     DG   H2'1   1705     0.0718      3.024000
  1706         HC     54     DG   H2'2   1706     0.0718      3.024000
  1707         OS     54     DG    O3'   1707    -0.5232         16.000000   ; qtot -53.31
; residue  55 DG  rtp DG   q -1.0
  1708          P     55     DG      P   1708     1.1659      30.970000
  1709         O2     55     DG    O1P   1709    -0.7761         16.000000
  1710         O2     55     DG    O2P   1710    -0.7761         16.000000
  1711         OS     55     DG    O5'   1711    -0.4954         16.000000
  1712         CJ     55     DG    C5'   1712    -0.0069      7.978000
  1713         H1     55     DG   H5'1   1713     0.0754      3.024000
  1714         H1     55     DG   H5'2   1714     0.0754      3.024000
  1715         CT     55     DG    C4'   1715     0.1629      9.994000
  1716         H1     55     DG    H4'   1716     0.1176      3.024000
  1717         OS     55     DG    O4'   1717    -0.3691         16.000000
  1718         CT     55     DG    C1'   1718     0.0358      9.994000
  1719         H2     55     DG    H1'   1719     0.1746      3.024000
  1720         N*     55     DG     N9   1720     0.0577      14.010000
  1721         CK     55     DG     C8   1721     0.0736      9.994000
  1722         H5     55     DG     H8   1722     0.1997      3.024000
  1723         NB     55     DG     N7   1723    -0.5725      14.010000
  1724         CB     55     DG     C5   1724     0.1991      12.010000
  1725          C     55     DG     C6   1725     0.4918      12.010000
  1726          O     55     DG     O6   1726    -0.5699         16.000000
  1727         NA     55     DG     N1   1727    -0.5053      11.994000
  1728          H     55     DG     H1   1728      0.352      3.024000
  1729         CA     55     DG     C2   1729     0.7432      12.010000
  1730         N2     55     DG     N2   1730     -0.923      9.978000
  1731          H     55     DG    H21   1731     0.4235      3.024000
  1732          H     55     DG    H22   1732     0.4235      3.024000
  1733         NC     55     DG     N3   1733    -0.6636      14.010000
  1734         CB     55     DG     C4   1734     0.1814      12.010000
  1735         C7     55     DG    C3'   1735     0.0713      9.994000
  1736         H1     55     DG    H3'   1736     0.0985      3.024000
  1737         CT     55     DG    C2'   1737    -0.0854      7.978000
  1738         HC     55     DG   H2'1   1738     0.0718      3.024000
  1739         HC     55     DG   H2'2   1739     0.0718      3.024000
  1740         OS     55     DG    O3'   1740    -0.5232         16.000000   ; qtot -54.31
; residue  56 DC  rtp DC   q -1.0
  1741          P     56     DC      P   1741     1.1659      30.970000
  1742         O2     56     DC    O1P   1742    -0.7761         16.000000
  1743         O2     56     DC    O2P   1743    -0.7761         16.000000
  1744         OS     56     DC    O5'   1744    -0.4954         16.000000
  1745         CJ     56     DC    C5'   1745    -0.0069      7.978000
  1746         H1     56     DC   H5'1   1746     0.0754      3.024000
  1747         H1     56     DC   H5'2   1747     0.0754      3.024000
  1748         CT     56     DC    C4'   1748     0.1629      9.994000
  1749         H1     56     DC    H4'   1749     0.1176      3.024000
  1750         OS     56     DC    O4'   1750    -0.3691         16.000000
  1751         CT     56     DC    C1'   1751    -0.0116      9.994000
  1752         H2     56     DC    H1'   1752     0.1963      3.024000
  1753         N*     56     DC     N1   1753    -0.0339      14.010000
  1754         C1     56     DC     C6   1754    -0.0183      9.994000
  1755         H4     56     DC     H6   1755     0.2293      3.024000
  1756         C1     56     DC     C5   1756    -0.5222      9.994000
  1757         HA     56     DC     H5   1757     0.1863      3.024000
  1758         CA     56     DC     C4   1758     0.8439      12.010000
  1759         N2     56     DC     N4   1759    -0.9773      9.978000
  1760          H     56     DC    H41   1760     0.4314      3.024000
  1761          H     56     DC    H42   1761     0.4314      3.024000
  1762         NC     56     DC     N3   1762    -0.7748      14.010000
  1763          C     56     DC     C2   1763     0.7959      12.010000
  1764          O     56     DC     O2   1764    -0.6548         16.000000
  1765         C7     56     DC    C3'   1765     0.0713      9.994000
  1766         H1     56     DC    H3'   1766     0.0985      3.024000
  1767         CT     56     DC    C2'   1767    -0.0854      7.978000
  1768         HC     56     DC   H2'1   1768     0.0718      3.024000
  1769         HC     56     DC   H2'2   1769     0.0718      3.024000
  1770         OS     56     DC    O3'   1770    -0.5232         16.000000   ; qtot -55.31
; residue  57 DG  rtp DG   q -1.0
  1771          P     57     DG      P   1771     1.1659      30.970000
  1772         O2     57     DG    O1P   1772    -0.7761         16.000000
  1773         O2     57     DG    O2P   1773    -0.7761         16.000000
  1774         OS     57     DG    O5'   1774    -0.4954         16.000000
  1775         CJ     57     DG    C5'   1775    -0.0069      7.978000
  1776         H1     57     DG   H5'1   1776     0.0754      3.024000
  1777         H1     57     DG   H5'2   1777     0.0754      3.024000
  1778         CT     57     DG    C4'   1778     0.1629      9.994000
  1779         H1     57     DG    H4'   1779     0.1176      3.024000
  1780         OS     57     DG    O4'   1780    -0.3691         16.000000
  1781         CT     57     DG    C1'   1781     0.0358      9.994000
  1782         H2     57     DG    H1'   1782     0.1746      3.024000
  1783         N*     57     DG     N9   1783     0.0577      14.010000
  1784         CK     57     DG     C8   1784     0.0736      9.994000
  1785         H5     57     DG     H8   1785     0.1997      3.024000
  1786         NB     57     DG     N7   1786    -0.5725      14.010000
  1787         CB     57     DG     C5   1787     0.1991      12.010000
  1788          C     57     DG     C6   1788     0.4918      12.010000
  1789          O     57     DG     O6   1789    -0.5699         16.000000
  1790         NA     57     DG     N1   1790    -0.5053      11.994000
  1791          H     57     DG     H1   1791      0.352      3.024000
  1792         CA     57     DG     C2   1792     0.7432      12.010000
  1793         N2     57     DG     N2   1793     -0.923      9.978000
  1794          H     57     DG    H21   1794     0.4235      3.024000
  1795          H     57     DG    H22   1795     0.4235      3.024000
  1796         NC     57     DG     N3   1796    -0.6636      14.010000
  1797         CB     57     DG     C4   1797     0.1814      12.010000
  1798         C7     57     DG    C3'   1798     0.0713      9.994000
  1799         H1     57     DG    H3'   1799     0.0985      3.024000
  1800         CT     57     DG    C2'   1800    -0.0854      7.978000
  1801         HC     57     DG   H2'1   1801     0.0718      3.024000
  1802         HC     57     DG   H2'2   1802     0.0718      3.024000
  1803         OS     57     DG    O3'   1803    -0.5232         16.000000   ; qtot -56.31
; residue  58 DG  rtp DG   q -1.0
  1804          P     58     DG      P   1804     1.1659      30.970000
  1805         O2     58     DG    O1P   1805    -0.7761         16.000000
  1806         O2     58     DG    O2P   1806    -0.7761         16.000000
  1807         OS     58     DG    O5'   1807    -0.4954         16.000000
  1808         CJ     58     DG    C5'   1808    -0.0069      7.978000
  1809         H1     58     DG   H5'1   1809     0.0754      3.024000
  1810         H1     58     DG   H5'2   1810     0.0754      3.024000
  1811         CT     58     DG    C4'   1811     0.1629      9.994000
  1812         H1     58     DG    H4'   1812     0.1176      3.024000
  1813         OS     58     DG    O4'   1813    -0.3691         16.000000
  1814         CT     58     DG    C1'   1814     0.0358      9.994000
  1815         H2     58     DG    H1'   1815     0.1746      3.024000
  1816         N*     58     DG     N9   1816     0.0577      14.010000
  1817         CK     58     DG     C8   1817     0.0736      9.994000
  1818         H5     58     DG     H8   1818     0.1997      3.024000
  1819         NB     58     DG     N7   1819    -0.5725      14.010000
  1820         CB     58     DG     C5   1820     0.1991      12.010000
  1821          C     58     DG     C6   1821     0.4918      12.010000
  1822          O     58     DG     O6   1822    -0.5699         16.000000
  1823         NA     58     DG     N1   1823    -0.5053      11.994000
  1824          H     58     DG     H1   1824      0.352      3.024000
  1825         CA     58     DG     C2   1825     0.7432      12.010000
  1826         N2     58     DG     N2   1826     -0.923      9.978000
  1827          H     58     DG    H21   1827     0.4235      3.024000
  1828          H     58     DG    H22   1828     0.4235      3.024000
  1829         NC     58     DG     N3   1829    -0.6636      14.010000
  1830         CB     58     DG     C4   1830     0.1814      12.010000
  1831         C7     58     DG    C3'   1831     0.0713      9.994000
  1832         H1     58     DG    H3'   1832     0.0985      3.024000
  1833         CT     58     DG    C2'   1833    -0.0854      7.978000
  1834         HC     58     DG   H2'1   1834     0.0718      3.024000
  1835         HC     58     DG   H2'2   1835     0.0718      3.024000
  1836         OS     58     DG    O3'   1836    -0.5232         16.000000   ; qtot -57.31
; residue  59 DC  rtp DC   q -1.0
  1837          P     59     DC      P   1837     1.1659      30.970000
  1838         O2     59     DC    O1P   1838    -0.7761         16.000000
  1839         O2     59     DC    O2P   1839    -0.7761         16.000000
  1840         OS     59     DC    O5'   1840    -0.4954         16.000000
  1841         CJ     59     DC    C5'   1841    -0.0069      7.978000
  1842         H1     59     DC   H5'1   1842     0.0754      3.024000
  1843         H1     59     DC   H5'2   1843     0.0754      3.024000
  1844         CT     59     DC    C4'   1844     0.1629      9.994000
  1845         H1     59     DC    H4'   1845     0.1176      3.024000
  1846         OS     59     DC    O4'   1846    -0.3691         16.000000
  1847         CT     59     DC    C1'   1847    -0.0116      9.994000
  1848         H2     59     DC    H1'   1848     0.1963      3.024000
  1849         N*     59     DC     N1   1849    -0.0339      14.010000
  1850         C1     59     DC     C6   1850    -0.0183      9.994000
  1851         H4     59     DC     H6   1851     0.2293      3.024000
  1852         C1     59     DC     C5   1852    -0.5222      9.994000
  1853         HA     59     DC     H5   1853     0.1863      3.024000
  1854         CA     59     DC     C4   1854     0.8439      12.010000
  1855         N2     59     DC     N4   1855    -0.9773      9.978000
  1856          H     59     DC    H41   1856     0.4314      3.024000
  1857          H     59     DC    H42   1857     0.4314      3.024000
  1858         NC     59     DC     N3   1858    -0.7748      14.010000
  1859          C     59     DC     C2   1859     0.7959      12.010000
  1860          O     59     DC     O2   1860    -0.6548         16.000000
  1861         C7     59     DC    C3'   1861     0.0713      9.994000
  1862         H1     59     DC    H3'   1862     0.0985      3.024000
  1863         CT     59     DC    C2'   1863    -0.0854      7.978000
  1864         HC     59     DC   H2'1   1864     0.0718      3.024000
  1865         HC     59     DC   H2'2   1865     0.0718      3.024000
  1866         OS     59     DC    O3'   1866    -0.5232         16.000000   ; qtot -58.31
; residue  60 DG  rtp DG   q -1.0
  1867          P     60     DG      P   1867     1.1659      30.970000
  1868         O2     60     DG    O1P   1868    -0.7761         16.000000
  1869         O2     60     DG    O2P   1869    -0.7761         16.000000
  1870         OS     60     DG    O5'   1870    -0.4954         16.000000
  1871         CJ     60     DG    C5'   1871    -0.0069      7.978000
  1872         H1     60     DG   H5'1   1872     0.0754      3.024000
  1873         H1     60     DG   H5'2   1873     0.0754      3.024000
  1874         CT     60     DG    C4'   1874     0.1629      9.994000
  1875         H1     60     DG    H4'   1875     0.1176      3.024000
  1876         OS     60     DG    O4'   1876    -0.3691         16.000000
  1877         CT     60     DG    C1'   1877     0.0358      9.994000
  1878         H2     60     DG    H1'   1878     0.1746      3.024000
  1879         N*     60     DG     N9   1879     0.0577      14.010000
  1880         CK     60     DG     C8   1880     0.0736      9.994000
  1881         H5     60     DG     H8   1881     0.1997      3.024000
  1882         NB     60     DG     N7   1882    -0.5725      14.010000
  1883         CB     60     DG     C5   1883     0.1991      12.010000
  1884          C     60     DG     C6   1884     0.4918      12.010000
  1885          O     60     DG     O6   1885    -0.5699         16.000000
  1886         NA     60     DG     N1   1886    -0.5053      11.994000
  1887          H     60     DG     H1   1887      0.352      3.024000
  1888         CA     60     DG     C2   1888     0.7432      12.010000
  1889         N2     60     DG     N2   1889     -0.923      9.978000
  1890          H     60     DG    H21   1890     0.4235      3.024000
  1891          H     60     DG    H22   1891     0.4235      3.024000
  1892         NC     60     DG     N3   1892    -0.6636      14.010000
  1893         CB     60     DG     C4   1893     0.1814      12.010000
  1894         C7     60     DG    C3'   1894     0.0713      9.994000
  1895         H1     60     DG    H3'   1895     0.0985      3.024000
  1896         CT     60     DG    C2'   1896    -0.0854      7.978000
  1897         HC     60     DG   H2'1   1897     0.0718      3.024000
  1898         HC     60     DG   H2'2   1898     0.0718      3.024000
  1899         OS     60     DG    O3'   1899    -0.5232         16.000000   ; qtot -59.31
; residue  61 DG  rtp DG   q -1.0
  1900          P     61     DG      P   1900     1.1659      30.970000
  1901         O2     61     DG    O1P   1901    -0.7761         16.000000
  1902         O2     61     DG    O2P   1902    -0.7761         16.000000
  1903         OS     61     DG    O5'   1903    -0.4954         16.000000
  1904         CJ     61     DG    C5'   1904    -0.0069      7.978000
  1905         H1     61     DG   H5'1   1905     0.0754      3.024000
  1906         H1     61     DG   H5'2   1906     0.0754      3.024000
  1907         CT     61     DG    C4'   1907     0.1629      9.994000
  1908         H1     61     DG    H4'   1908     0.1176      3.024000
  1909         OS     61     DG    O4'   1909    -0.3691         16.000000
  1910         CT     61     DG    C1'   1910     0.0358      9.994000
  1911         H2     61     DG    H1'   1911     0.1746      3.024000
  1912         N*     61     DG     N9   1912     0.0577      14.010000
  1913         CK     61     DG     C8   1913     0.0736      9.994000
  1914         H5     61     DG     H8   1914     0.1997      3.024000
  1915         NB     61     DG     N7   1915    -0.5725      14.010000
  1916         CB     61     DG     C5   1916     0.1991      12.010000
  1917          C     61     DG     C6   1917     0.4918      12.010000
  1918          O     61     DG     O6   1918    -0.5699         16.000000
  1919         NA     61     DG     N1   1919    -0.5053      11.994000
  1920          H     61     DG     H1   1920      0.352      3.024000
  1921         CA     61     DG     C2   1921     0.7432      12.010000
  1922         N2     61     DG     N2   1922     -0.923      9.978000
  1923          H     61     DG    H21   1923     0.4235      3.024000
  1924          H     61     DG    H22   1924     0.4235      3.024000
  1925         NC     61     DG     N3   1925    -0.6636      14.010000
  1926         CB     61     DG     C4   1926     0.1814      12.010000
  1927         C7     61     DG    C3'   1927     0.0713      9.994000
  1928         H1     61     DG    H3'   1928     0.0985      3.024000
  1929         CT     61     DG    C2'   1929    -0.0854      7.978000
  1930         HC     61     DG   H2'1   1930     0.0718      3.024000
  1931         HC     61     DG   H2'2   1931     0.0718      3.024000
  1932         OS     61     DG    O3'   1932    -0.5232         16.000000   ; qtot -60.31
; residue  62 DG  rtp DG   q -1.0
  1933          P     62     DG      P   1933     1.1659      30.970000
  1934         O2     62     DG    O1P   1934    -0.7761         16.000000
  1935         O2     62     DG    O2P   1935    -0.7761         16.000000
  1936         OS     62     DG    O5'   1936    -0.4954         16.000000
  1937         CJ     62     DG    C5'   1937    -0.0069      7.978000
  1938         H1     62     DG   H5'1   1938     0.0754      3.024000
  1939         H1     62     DG   H5'2   1939     0.0754      3.024000
  1940         CT     62     DG    C4'   1940     0.1629      9.994000
  1941         H1     62     DG    H4'   1941     0.1176      3.024000
  1942         OS     62     DG    O4'   1942    -0.3691         16.000000
  1943         CT     62     DG    C1'   1943     0.0358      9.994000
  1944         H2     62     DG    H1'   1944     0.1746      3.024000
  1945         N*     62     DG     N9   1945     0.0577      14.010000
  1946         CK     62     DG     C8   1946     0.0736      9.994000
  1947         H5     62     DG     H8   1947     0.1997      3.024000
  1948         NB     62     DG     N7   1948    -0.5725      14.010000
  1949         CB     62     DG     C5   1949     0.1991      12.010000
  1950          C     62     DG     C6   1950     0.4918      12.010000
  1951          O     62     DG     O6   1951    -0.5699         16.000000
  1952         NA     62     DG     N1   1952    -0.5053      11.994000
  1953          H     62     DG     H1   1953      0.352      3.024000
  1954         CA     62     DG     C2   1954     0.7432      12.010000
  1955         N2     62     DG     N2   1955     -0.923      9.978000
  1956          H     62     DG    H21   1956     0.4235      3.024000
  1957          H     62     DG    H22   1957     0.4235      3.024000
  1958         NC     62     DG     N3   1958    -0.6636      14.010000
  1959         CB     62     DG     C4   1959     0.1814      12.010000
  1960         C7     62     DG    C3'   1960     0.0713      9.994000
  1961         H1     62     DG    H3'   1961     0.0985      3.024000
  1962         CT     62     DG    C2'   1962    -0.0854      7.978000
  1963         HC     62     DG   H2'1   1963     0.0718      3.024000
  1964         HC     62     DG   H2'2   1964     0.0718      3.024000
  1965         OS     62     DG    O3'   1965    -0.5232         16.000000   ; qtot -61.31
; residue  63 DG  rtp DG   q -1.0
  1966          P     63     DG      P   1966     1.1659      30.970000
  1967         O2     63     DG    O1P   1967    -0.7761         16.000000
  1968         O2     63     DG    O2P   1968    -0.7761         16.000000
  1969         OS     63     DG    O5'   1969    -0.4954         16.000000
  1970         CJ     63     DG    C5'   1970    -0.0069      7.978000
  1971         H1     63     DG   H5'1   1971     0.0754      3.024000
  1972         H1     63     DG   H5'2   1972     0.0754      3.024000
  1973         CT     63     DG    C4'   1973     0.1629      9.994000
  1974         H1     63     DG    H4'   1974     0.1176      3.024000
  1975         OS     63     DG    O4'   1975    -0.3691         16.000000
  1976         CT     63     DG    C1'   1976     0.0358      9.994000
  1977         H2     63     DG    H1'   1977     0.1746      3.024000
  1978         N*     63     DG     N9   1978     0.0577      14.010000
  1979         CK     63     DG     C8   1979     0.0736      9.994000
  1980         H5     63     DG     H8   1980     0.1997      3.024000
  1981         NB     63     DG     N7   1981    -0.5725      14.010000
  1982         CB     63     DG     C5   1982     0.1991      12.010000
  1983          C     63     DG     C6   1983     0.4918      12.010000
  1984          O     63     DG     O6   1984    -0.5699         16.000000
  1985         NA     63     DG     N1   1985    -0.5053      11.994000
  1986          H     63     DG     H1   1986      0.352      3.024000
  1987         CA     63     DG     C2   1987     0.7432      12.010000
  1988         N2     63     DG     N2   1988     -0.923      9.978000
  1989          H     63     DG    H21   1989     0.4235      3.024000
  1990          H     63     DG    H22   1990     0.4235      3.024000
  1991         NC     63     DG     N3   1991    -0.6636      14.010000
  1992         CB     63     DG     C4   1992     0.1814      12.010000
  1993         C7     63     DG    C3'   1993     0.0713      9.994000
  1994         H1     63     DG    H3'   1994     0.0985      3.024000
  1995         CT     63     DG    C2'   1995    -0.0854      7.978000
  1996         HC     63     DG   H2'1   1996     0.0718      3.024000
  1997         HC     63     DG   H2'2   1997     0.0718      3.024000
  1998         OS     63     DG    O3'   1998    -0.5232         16.000000   ; qtot -62.31
; residue  64 DC  rtp DC   q -1.0
  1999          P     64     DC      P   1999     1.1659      30.970000
  2000         O2     64     DC    O1P   2000    -0.7761         16.000000
  2001         O2     64     DC    O2P   2001    -0.7761         16.000000
  2002         OS     64     DC    O5'   2002    -0.4954         16.000000
  2003         CJ     64     DC    C5'   2003    -0.0069      7.978000
  2004         H1     64     DC   H5'1   2004     0.0754      3.024000
  2005         H1     64     DC   H5'2   2005     0.0754      3.024000
  2006         CT     64     DC    C4'   2006     0.1629      9.994000
  2007         H1     64     DC    H4'   2007     0.1176      3.024000
  2008         OS     64     DC    O4'   2008    -0.3691         16.000000
  2009         CT     64     DC    C1'   2009    -0.0116      9.994000
  2010         H2     64     DC    H1'   2010     0.1963      3.024000
  2011         N*     64     DC     N1   2011    -0.0339      14.010000
  2012         C1     64     DC     C6   2012    -0.0183      9.994000
  2013         H4     64     DC     H6   2013     0.2293      3.024000
  2014         C1     64     DC     C5   2014    -0.5222      9.994000
  2015         HA     64     DC     H5   2015     0.1863      3.024000
  2016         CA     64     DC     C4   2016     0.8439      12.010000
  2017         N2     64     DC     N4   2017    -0.9773      9.978000
  2018          H     64     DC    H41   2018     0.4314      3.024000
  2019          H     64     DC    H42   2019     0.4314      3.024000
  2020         NC     64     DC     N3   2020    -0.7748      14.010000
  2021          C     64     DC     C2   2021     0.7959      12.010000
  2022          O     64     DC     O2   2022    -0.6548         16.000000
  2023         C7     64     DC    C3'   2023     0.0713      9.994000
  2024         H1     64     DC    H3'   2024     0.0985      3.024000
  2025         CT     64     DC    C2'   2025    -0.0854      7.978000
  2026         HC     64     DC   H2'1   2026     0.0718      3.024000
  2027         HC     64     DC   H2'2   2027     0.0718      3.024000
  2028         OS     64     DC    O3'   2028    -0.5232         16.000000   ; qtot -63.31
; residue  65 DC  rtp DC   q -1.0
  2029          P     65     DC      P   2029     1.1659      30.970000
  2030         O2     65     DC    O1P   2030    -0.7761         16.000000
  2031         O2     65     DC    O2P   2031    -0.7761         16.000000
  2032         OS     65     DC    O5'   2032    -0.4954         16.000000
  2033         CJ     65     DC    C5'   2033    -0.0069      7.978000
  2034         H1     65     DC   H5'1   2034     0.0754      3.024000
  2035         H1     65     DC   H5'2   2035     0.0754      3.024000
  2036         CT     65     DC    C4'   2036     0.1629      9.994000
  2037         H1     65     DC    H4'   2037     0.1176      3.024000
  2038         OS     65     DC    O4'   2038    -0.3691         16.000000
  2039         CT     65     DC    C1'   2039    -0.0116      9.994000
  2040         H2     65     DC    H1'   2040     0.1963      3.024000
  2041         N*     65     DC     N1   2041    -0.0339      14.010000
  2042         C1     65     DC     C6   2042    -0.0183      9.994000
  2043         H4     65     DC     H6   2043     0.2293      3.024000
  2044         C1     65     DC     C5   2044    -0.5222      9.994000
  2045         HA     65     DC     H5   2045     0.1863      3.024000
  2046         CA     65     DC     C4   2046     0.8439      12.010000
  2047         N2     65     DC     N4   2047    -0.9773      9.978000
  2048          H     65     DC    H41   2048     0.4314      3.024000
  2049          H     65     DC    H42   2049     0.4314      3.024000
  2050         NC     65     DC     N3   2050    -0.7748      14.010000
  2051          C     65     DC     C2   2051     0.7959      12.010000
  2052          O     65     DC     O2   2052    -0.6548         16.000000
  2053         C7     65     DC    C3'   2053     0.0713      9.994000
  2054         H1     65     DC    H3'   2054     0.0985      3.024000
  2055         CT     65     DC    C2'   2055    -0.0854      7.978000
  2056         HC     65     DC   H2'1   2056     0.0718      3.024000
  2057         HC     65     DC   H2'2   2057     0.0718      3.024000
  2058         OS     65     DC    O3'   2058    -0.5232         16.000000   ; qtot -64.31
; residue  66 DA  rtp DA   q -1.0
  2059          P     66     DA      P   2059     1.1659      30.970000
  2060         O2     66     DA    O1P   2060    -0.7761         16.000000
  2061         O2     66     DA    O2P   2061    -0.7761         16.000000
  2062         OS     66     DA    O5'   2062    -0.4954         16.000000
  2063         CJ     66     DA    C5'   2063    -0.0069      7.978000
  2064         H1     66     DA   H5'1   2064     0.0754      3.024000
  2065         H1     66     DA   H5'2   2065     0.0754      3.024000
  2066         CT     66     DA    C4'   2066     0.1629      9.994000
  2067         H1     66     DA    H4'   2067     0.1176      3.024000
  2068         OS     66     DA    O4'   2068    -0.3691         16.000000
  2069         CT     66     DA    C1'   2069     0.0431      9.994000
  2070         H2     66     DA    H1'   2070     0.1838      3.024000
  2071         N*     66     DA     N9   2071    -0.0268      14.010000
  2072         C2     66     DA     C8   2072     0.1607      9.994000
  2073         H5     66     DA     H8   2073     0.1877      3.024000
  2074         NB     66     DA     N7   2074    -0.6175      14.010000
  2075         CB     66     DA     C5   2075     0.0725      12.010000
  2076         CA     66     DA     C6   2076     0.6897      12.010000
  2077         N2     66     DA     N6   2077    -0.9123      9.978000
  2078          H     66     DA    H61   2078     0.4167      3.024000
  2079          H     66     DA    H62   2079     0.4167      3.024000
  2080         NC     66     DA     N1   2080    -0.7624      14.010000
  2081         CQ     66     DA     C2   2081     0.5716      9.994000
  2082         H5     66     DA     H2   2082     0.0598      3.024000
  2083         NC     66     DA     N3   2083    -0.7417      14.010000
  2084         CB     66     DA     C4   2084       0.38      12.010000
  2085         C7     66     DA    C3'   2085     0.0713      9.994000
  2086         H1     66     DA    H3'   2086     0.0985      3.024000
  2087         CT     66     DA    C2'   2087    -0.0854      7.978000
  2088         HC     66     DA   H2'1   2088     0.0718      3.024000
  2089         HC     66     DA   H2'2   2089     0.0718      3.024000
  2090         OS     66     DA    O3'   2090    -0.5232         16.000000   ; qtot -65.31
; residue  67 DG  rtp DG   q -1.0
  2091          P     67     DG      P   2091     1.1659      30.970000
  2092         O2     67     DG    O1P   2092    -0.7761         16.000000
  2093         O2     67     DG    O2P   2093    -0.7761         16.000000
  2094         OS     67     DG    O5'   2094    -0.4954         16.000000
  2095         CJ     67     DG    C5'   2095    -0.0069      7.978000
  2096         H1     67     DG   H5'1   2096     0.0754      3.024000
  2097         H1     67     DG   H5'2   2097     0.0754      3.024000
  2098         CT     67     DG    C4'   2098     0.1629      9.994000
  2099         H1     67     DG    H4'   2099     0.1176      3.024000
  2100         OS     67     DG    O4'   2100    -0.3691         16.000000
  2101         CT     67     DG    C1'   2101     0.0358      9.994000
  2102         H2     67     DG    H1'   2102     0.1746      3.024000
  2103         N*     67     DG     N9   2103     0.0577      14.010000
  2104         CK     67     DG     C8   2104     0.0736      9.994000
  2105         H5     67     DG     H8   2105     0.1997      3.024000
  2106         NB     67     DG     N7   2106    -0.5725      14.010000
  2107         CB     67     DG     C5   2107     0.1991      12.010000
  2108          C     67     DG     C6   2108     0.4918      12.010000
  2109          O     67     DG     O6   2109    -0.5699         16.000000
  2110         NA     67     DG     N1   2110    -0.5053      11.994000
  2111          H     67     DG     H1   2111      0.352      3.024000
  2112         CA     67     DG     C2   2112     0.7432      12.010000
  2113         N2     67     DG     N2   2113     -0.923      9.978000
  2114          H     67     DG    H21   2114     0.4235      3.024000
  2115          H     67     DG    H22   2115     0.4235      3.024000
  2116         NC     67     DG     N3   2116    -0.6636      14.010000
  2117         CB     67     DG     C4   2117     0.1814      12.010000
  2118         C7     67     DG    C3'   2118     0.0713      9.994000
  2119         H1     67     DG    H3'   2119     0.0985      3.024000
  2120         CT     67     DG    C2'   2120    -0.0854      7.978000
  2121         HC     67     DG   H2'1   2121     0.0718      3.024000
  2122         HC     67     DG   H2'2   2122     0.0718      3.024000
  2123         OS     67     DG    O3'   2123    -0.5232         16.000000   ; qtot -66.31
; residue  68 DA  rtp DA   q -1.0
  2124          P     68     DA      P   2124     1.1659      30.970000
  2125         O2     68     DA    O1P   2125    -0.7761         16.000000
  2126         O2     68     DA    O2P   2126    -0.7761         16.000000
  2127         OS     68     DA    O5'   2127    -0.4954         16.000000
  2128         CJ     68     DA    C5'   2128    -0.0069      7.978000
  2129         H1     68     DA   H5'1   2129     0.0754      3.024000
  2130         H1     68     DA   H5'2   2130     0.0754      3.024000
  2131         CT     68     DA    C4'   2131     0.1629      9.994000
  2132         H1     68     DA    H4'   2132     0.1176      3.024000
  2133         OS     68     DA    O4'   2133    -0.3691         16.000000
  2134         CT     68     DA    C1'   2134     0.0431      9.994000
  2135         H2     68     DA    H1'   2135     0.1838      3.024000
  2136         N*     68     DA     N9   2136    -0.0268      14.010000
  2137         C2     68     DA     C8   2137     0.1607      9.994000
  2138         H5     68     DA     H8   2138     0.1877      3.024000
  2139         NB     68     DA     N7   2139    -0.6175      14.010000
  2140         CB     68     DA     C5   2140     0.0725      12.010000
  2141         CA     68     DA     C6   2141     0.6897      12.010000
  2142         N2     68     DA     N6   2142    -0.9123      9.978000
  2143          H     68     DA    H61   2143     0.4167      3.024000
  2144          H     68     DA    H62   2144     0.4167      3.024000
  2145         NC     68     DA     N1   2145    -0.7624      14.010000
  2146         CQ     68     DA     C2   2146     0.5716      9.994000
  2147         H5     68     DA     H2   2147     0.0598      3.024000
  2148         NC     68     DA     N3   2148    -0.7417      14.010000
  2149         CB     68     DA     C4   2149       0.38      12.010000
  2150         C7     68     DA    C3'   2150     0.0713      9.994000
  2151         H1     68     DA    H3'   2151     0.0985      3.024000
  2152         CT     68     DA    C2'   2152    -0.0854      7.978000
  2153         HC     68     DA   H2'1   2153     0.0718      3.024000
  2154         HC     68     DA   H2'2   2154     0.0718      3.024000
  2155         OS     68     DA    O3'   2155    -0.5232         16.000000   ; qtot -67.31
; residue  69 DG  rtp DG   q -1.0
  2156          P     69     DG      P   2156     1.1659      30.970000
  2157         O2     69     DG    O1P   2157    -0.7761         16.000000
  2158         O2     69     DG    O2P   2158    -0.7761         16.000000
  2159         OS     69     DG    O5'   2159    -0.4954         16.000000
  2160         CJ     69     DG    C5'   2160    -0.0069      7.978000
  2161         H1     69     DG   H5'1   2161     0.0754      3.024000
  2162         H1     69     DG   H5'2   2162     0.0754      3.024000
  2163         CT     69     DG    C4'   2163     0.1629      9.994000
  2164         H1     69     DG    H4'   2164     0.1176      3.024000
  2165         OS     69     DG    O4'   2165    -0.3691         16.000000
  2166         CT     69     DG    C1'   2166     0.0358      9.994000
  2167         H2     69     DG    H1'   2167     0.1746      3.024000
  2168         N*     69     DG     N9   2168     0.0577      14.010000
  2169         CK     69     DG     C8   2169     0.0736      9.994000
  2170         H5     69     DG     H8   2170     0.1997      3.024000
  2171         NB     69     DG     N7   2171    -0.5725      14.010000
  2172         CB     69     DG     C5   2172     0.1991      12.010000
  2173          C     69     DG     C6   2173     0.4918      12.010000
  2174          O     69     DG     O6   2174    -0.5699         16.000000
  2175         NA     69     DG     N1   2175    -0.5053      11.994000
  2176          H     69     DG     H1   2176      0.352      3.024000
  2177         CA     69     DG     C2   2177     0.7432      12.010000
  2178         N2     69     DG     N2   2178     -0.923      9.978000
  2179          H     69     DG    H21   2179     0.4235      3.024000
  2180          H     69     DG    H22   2180     0.4235      3.024000
  2181         NC     69     DG     N3   2181    -0.6636      14.010000
  2182         CB     69     DG     C4   2182     0.1814      12.010000
  2183         C7     69     DG    C3'   2183     0.0713      9.994000
  2184         H1     69     DG    H3'   2184     0.0985      3.024000
  2185         CT     69     DG    C2'   2185    -0.0854      7.978000
  2186         HC     69     DG   H2'1   2186     0.0718      3.024000
  2187         HC     69     DG   H2'2   2187     0.0718      3.024000
  2188         OS     69     DG    O3'   2188    -0.5232         16.000000   ; qtot -68.31
; residue  70 DG  rtp DG   q -1.0
  2189          P     70     DG      P   2189     1.1659      30.970000
  2190         O2     70     DG    O1P   2190    -0.7761         16.000000
  2191         O2     70     DG    O2P   2191    -0.7761         16.000000
  2192         OS     70     DG    O5'   2192    -0.4954         16.000000
  2193         CJ     70     DG    C5'   2193    -0.0069      7.978000
  2194         H1     70     DG   H5'1   2194     0.0754      3.024000
  2195         H1     70     DG   H5'2   2195     0.0754      3.024000
  2196         CT     70     DG    C4'   2196     0.1629      9.994000
  2197         H1     70     DG    H4'   2197     0.1176      3.024000
  2198         OS     70     DG    O4'   2198    -0.3691         16.000000
  2199         CT     70     DG    C1'   2199     0.0358      9.994000
  2200         H2     70     DG    H1'   2200     0.1746      3.024000
  2201         N*     70     DG     N9   2201     0.0577      14.010000
  2202         CK     70     DG     C8   2202     0.0736      9.994000
  2203         H5     70     DG     H8   2203     0.1997      3.024000
  2204         NB     70     DG     N7   2204    -0.5725      14.010000
  2205         CB     70     DG     C5   2205     0.1991      12.010000
  2206          C     70     DG     C6   2206     0.4918      12.010000
  2207          O     70     DG     O6   2207    -0.5699         16.000000
  2208         NA     70     DG     N1   2208    -0.5053      11.994000
  2209          H     70     DG     H1   2209      0.352      3.024000
  2210         CA     70     DG     C2   2210     0.7432      12.010000
  2211         N2     70     DG     N2   2211     -0.923      9.978000
  2212          H     70     DG    H21   2212     0.4235      3.024000
  2213          H     70     DG    H22   2213     0.4235      3.024000
  2214         NC     70     DG     N3   2214    -0.6636      14.010000
  2215         CB     70     DG     C4   2215     0.1814      12.010000
  2216         C7     70     DG    C3'   2216     0.0713      9.994000
  2217         H1     70     DG    H3'   2217     0.0985      3.024000
  2218         CT     70     DG    C2'   2218    -0.0854      7.978000
  2219         HC     70     DG   H2'1   2219     0.0718      3.024000
  2220         HC     70     DG   H2'2   2220     0.0718      3.024000
  2221         OS     70     DG    O3'   2221    -0.5232         16.000000   ; qtot -69.31
; residue  71 DC  rtp DC   q -1.0
  2222          P     71     DC      P   2222     1.1659      30.970000
  2223         O2     71     DC    O1P   2223    -0.7761         16.000000
  2224         O2     71     DC    O2P   2224    -0.7761         16.000000
  2225         OS     71     DC    O5'   2225    -0.4954         16.000000
  2226         CJ     71     DC    C5'   2226    -0.0069      7.978000
  2227         H1     71     DC   H5'1   2227     0.0754      3.024000
  2228         H1     71     DC   H5'2   2228     0.0754      3.024000
  2229         CT     71     DC    C4'   2229     0.1629      9.994000
  2230         H1     71     DC    H4'   2230     0.1176      3.024000
  2231         OS     71     DC    O4'   2231    -0.3691         16.000000
  2232         CT     71     DC    C1'   2232    -0.0116      9.994000
  2233         H2     71     DC    H1'   2233     0.1963      3.024000
  2234         N*     71     DC     N1   2234    -0.0339      14.010000
  2235         C1     71     DC     C6   2235    -0.0183      9.994000
  2236         H4     71     DC     H6   2236     0.2293      3.024000
  2237         C1     71     DC     C5   2237    -0.5222      9.994000
  2238         HA     71     DC     H5   2238     0.1863      3.024000
  2239         CA     71     DC     C4   2239     0.8439      12.010000
  2240         N2     71     DC     N4   2240    -0.9773      9.978000
  2241          H     71     DC    H41   2241     0.4314      3.024000
  2242          H     71     DC    H42   2242     0.4314      3.024000
  2243         NC     71     DC     N3   2243    -0.7748      14.010000
  2244          C     71     DC     C2   2244     0.7959      12.010000
  2245          O     71     DC     O2   2245    -0.6548         16.000000
  2246         C7     71     DC    C3'   2246     0.0713      9.994000
  2247         H1     71     DC    H3'   2247     0.0985      3.024000
  2248         CT     71     DC    C2'   2248    -0.0854      7.978000
  2249         HC     71     DC   H2'1   2249     0.0718      3.024000
  2250         HC     71     DC   H2'2   2250     0.0718      3.024000
  2251         OS     71     DC    O3'   2251    -0.5232         16.000000   ; qtot -70.31
; residue  72 DT  rtp DT   q -1.0
  2252          P     72     DT      P   2252     1.1659      30.970000
  2253         O2     72     DT    O1P   2253    -0.7761         16.000000
  2254         O2     72     DT    O2P   2254    -0.7761         16.000000
  2255         OS     72     DT    O5'   2255    -0.4954         16.000000
  2256         CJ     72     DT    C5'   2256    -0.0069      7.978000
  2257         H1     72     DT   H5'1   2257     0.0754      3.024000
  2258         H1     72     DT   H5'2   2258     0.0754      3.024000
  2259         CT     72     DT    C4'   2259     0.1629      9.994000
  2260         H1     72     DT    H4'   2260     0.1176      3.024000
  2261         OS     72     DT    O4'   2261    -0.3691         16.000000
  2262         CT     72     DT    C1'   2262      0.068      9.994000
  2263         H2     72     DT    H1'   2263     0.1804      3.024000
  2264         N*     72     DT     N1   2264    -0.0239      14.010000
  2265         CM     72     DT     C6   2265    -0.2209      9.994000
  2266         H4     72     DT     H6   2266     0.2607      3.024000
  2267         CM     72     DT     C5   2267     0.0025      12.010000
  2268         CT     72     DT     C7   2268    -0.2269      5.962000
  2269         HC     72     DT    H71   2269      0.077      3.024000
  2270         HC     72     DT    H72   2270      0.077      3.024000
  2271         HC     72     DT    H73   2271      0.077      3.024000
  2272          C     72     DT     C4   2272     0.5194      12.010000
  2273          O     72     DT     O4   2273    -0.5563         16.000000
  2274         NA     72     DT     N3   2274     -0.434      11.994000
  2275          H     72     DT     H3   2275      0.342      3.024000
  2276          C     72     DT     C2   2276     0.5677      12.010000
  2277          O     72     DT     O2   2277    -0.5881         16.000000
  2278         C7     72     DT    C3'   2278     0.0713      9.994000
  2279         H1     72     DT    H3'   2279     0.0985      3.024000
  2280         CT     72     DT    C2'   2280    -0.0854      7.978000
  2281         HC     72     DT   H2'1   2281     0.0718      3.024000
  2282         HC     72     DT   H2'2   2282     0.0718      3.024000
  2283         OS     72     DT    O3'   2283    -0.5232         16.000000   ; qtot -71.31
; residue  73 DC  rtp DC   q -1.0
  2284          P     73     DC      P   2284     1.1659      30.970000
  2285         O2     73     DC    O1P   2285    -0.7761         16.000000
  2286         O2     73     DC    O2P   2286    -0.7761         16.000000
  2287         OS     73     DC    O5'   2287    -0.4954         16.000000
  2288         CJ     73     DC    C5'   2288    -0.0069      7.978000
  2289         H1     73     DC   H5'1   2289     0.0754      3.024000
  2290         H1     73     DC   H5'2   2290     0.0754      3.024000
  2291         CT     73     DC    C4'   2291     0.1629      9.994000
  2292         H1     73     DC    H4'   2292     0.1176      3.024000
  2293         OS     73     DC    O4'   2293    -0.3691         16.000000
  2294         CT     73     DC    C1'   2294    -0.0116      9.994000
  2295         H2     73     DC    H1'   2295     0.1963      3.024000
  2296         N*     73     DC     N1   2296    -0.0339      14.010000
  2297         C1     73     DC     C6   2297    -0.0183      9.994000
  2298         H4     73     DC     H6   2298     0.2293      3.024000
  2299         C1     73     DC     C5   2299    -0.5222      9.994000
  2300         HA     73     DC     H5   2300     0.1863      3.024000
  2301         CA     73     DC     C4   2301     0.8439      12.010000
  2302         N2     73     DC     N4   2302    -0.9773      9.978000
  2303          H     73     DC    H41   2303     0.4314      3.024000
  2304          H     73     DC    H42   2304     0.4314      3.024000
  2305         NC     73     DC     N3   2305    -0.7748      14.010000
  2306          C     73     DC     C2   2306     0.7959      12.010000
  2307          O     73     DC     O2   2307    -0.6548         16.000000
  2308         C7     73     DC    C3'   2308     0.0713      9.994000
  2309         H1     73     DC    H3'   2309     0.0985      3.024000
  2310         CT     73     DC    C2'   2310    -0.0854      7.978000
  2311         HC     73     DC   H2'1   2311     0.0718      3.024000
  2312         HC     73     DC   H2'2   2312     0.0718      3.024000
  2313         OS     73     DC    O3'   2313    -0.5232         16.000000   ; qtot -72.31
; residue  74 DA  rtp DA   q -1.0
  2314          P     74     DA      P   2314     1.1659      30.970000
  2315         O2     74     DA    O1P   2315    -0.7761         16.000000
  2316         O2     74     DA    O2P   2316    -0.7761         16.000000
  2317         OS     74     DA    O5'   2317    -0.4954         16.000000
  2318         CJ     74     DA    C5'   2318    -0.0069      7.978000
  2319         H1     74     DA   H5'1   2319     0.0754      3.024000
  2320         H1     74     DA   H5'2   2320     0.0754      3.024000
  2321         CT     74     DA    C4'   2321     0.1629      9.994000
  2322         H1     74     DA    H4'   2322     0.1176      3.024000
  2323         OS     74     DA    O4'   2323    -0.3691         16.000000
  2324         CT     74     DA    C1'   2324     0.0431      9.994000
  2325         H2     74     DA    H1'   2325     0.1838      3.024000
  2326         N*     74     DA     N9   2326    -0.0268      14.010000
  2327         C2     74     DA     C8   2327     0.1607      9.994000
  2328         H5     74     DA     H8   2328     0.1877      3.024000
  2329         NB     74     DA     N7   2329    -0.6175      14.010000
  2330         CB     74     DA     C5   2330     0.0725      12.010000
  2331         CA     74     DA     C6   2331     0.6897      12.010000
  2332         N2     74     DA     N6   2332    -0.9123      9.978000
  2333          H     74     DA    H61   2333     0.4167      3.024000
  2334          H     74     DA    H62   2334     0.4167      3.024000
  2335         NC     74     DA     N1   2335    -0.7624      14.010000
  2336         CQ     74     DA     C2   2336     0.5716      9.994000
  2337         H5     74     DA     H2   2337     0.0598      3.024000
  2338         NC     74     DA     N3   2338    -0.7417      14.010000
  2339         CB     74     DA     C4   2339       0.38      12.010000
  2340         C7     74     DA    C3'   2340     0.0713      9.994000
  2341         H1     74     DA    H3'   2341     0.0985      3.024000
  2342         CT     74     DA    C2'   2342    -0.0854      7.978000
  2343         HC     74     DA   H2'1   2343     0.0718      3.024000
  2344         HC     74     DA   H2'2   2344     0.0718      3.024000
  2345         OS     74     DA    O3'   2345    -0.5232         16.000000   ; qtot -73.31
; residue  75 DG  rtp DG   q -1.0
  2346          P     75     DG      P   2346     1.1659      30.970000
  2347         O2     75     DG    O1P   2347    -0.7761         16.000000
  2348         O2     75     DG    O2P   2348    -0.7761         16.000000
  2349         OS     75     DG    O5'   2349    -0.4954         16.000000
  2350         CJ     75     DG    C5'   2350    -0.0069      7.978000
  2351         H1     75     DG   H5'1   2351     0.0754      3.024000
  2352         H1     75     DG   H5'2   2352     0.0754      3.024000
  2353         CT     75     DG    C4'   2353     0.1629      9.994000
  2354         H1     75     DG    H4'   2354     0.1176      3.024000
  2355         OS     75     DG    O4'   2355    -0.3691         16.000000
  2356         CT     75     DG    C1'   2356     0.0358      9.994000
  2357         H2     75     DG    H1'   2357     0.1746      3.024000
  2358         N*     75     DG     N9   2358     0.0577      14.010000
  2359         CK     75     DG     C8   2359     0.0736      9.994000
  2360         H5     75     DG     H8   2360     0.1997      3.024000
  2361         NB     75     DG     N7   2361    -0.5725      14.010000
  2362         CB     75     DG     C5   2362     0.1991      12.010000
  2363          C     75     DG     C6   2363     0.4918      12.010000
  2364          O     75     DG     O6   2364    -0.5699         16.000000
  2365         NA     75     DG     N1   2365    -0.5053      11.994000
  2366          H     75     DG     H1   2366      0.352      3.024000
  2367         CA     75     DG     C2   2367     0.7432      12.010000
  2368         N2     75     DG     N2   2368     -0.923      9.978000
  2369          H     75     DG    H21   2369     0.4235      3.024000
  2370          H     75     DG    H22   2370     0.4235      3.024000
  2371         NC     75     DG     N3   2371    -0.6636      14.010000
  2372         CB     75     DG     C4   2372     0.1814      12.010000
  2373         C7     75     DG    C3'   2373     0.0713      9.994000
  2374         H1     75     DG    H3'   2374     0.0985      3.024000
  2375         CT     75     DG    C2'   2375    -0.0854      7.978000
  2376         HC     75     DG   H2'1   2376     0.0718      3.024000
  2377         HC     75     DG   H2'2   2377     0.0718      3.024000
  2378         OS     75     DG    O3'   2378    -0.5232         16.000000   ; qtot -74.31
; residue  76 DC  rtp DC   q -1.0
  2379          P     76     DC      P   2379     1.1659      30.970000
  2380         O2     76     DC    O1P   2380    -0.7761         16.000000
  2381         O2     76     DC    O2P   2381    -0.7761         16.000000
  2382         OS     76     DC    O5'   2382    -0.4954         16.000000
  2383         CJ     76     DC    C5'   2383    -0.0069      7.978000
  2384         H1     76     DC   H5'1   2384     0.0754      3.024000
  2385         H1     76     DC   H5'2   2385     0.0754      3.024000
  2386         CT     76     DC    C4'   2386     0.1629      9.994000
  2387         H1     76     DC    H4'   2387     0.1176      3.024000
  2388         OS     76     DC    O4'   2388    -0.3691         16.000000
  2389         CT     76     DC    C1'   2389    -0.0116      9.994000
  2390         H2     76     DC    H1'   2390     0.1963      3.024000
  2391         N*     76     DC     N1   2391    -0.0339      14.010000
  2392         C1     76     DC     C6   2392    -0.0183      9.994000
  2393         H4     76     DC     H6   2393     0.2293      3.024000
  2394         C1     76     DC     C5   2394    -0.5222      9.994000
  2395         HA     76     DC     H5   2395     0.1863      3.024000
  2396         CA     76     DC     C4   2396     0.8439      12.010000
  2397         N2     76     DC     N4   2397    -0.9773      9.978000
  2398          H     76     DC    H41   2398     0.4314      3.024000
  2399          H     76     DC    H42   2399     0.4314      3.024000
  2400         NC     76     DC     N3   2400    -0.7748      14.010000
  2401          C     76     DC     C2   2401     0.7959      12.010000
  2402          O     76     DC     O2   2402    -0.6548         16.000000
  2403         C7     76     DC    C3'   2403     0.0713      9.994000
  2404         H1     76     DC    H3'   2404     0.0985      3.024000
  2405         CT     76     DC    C2'   2405    -0.0854      7.978000
  2406         HC     76     DC   H2'1   2406     0.0718      3.024000
  2407         HC     76     DC   H2'2   2407     0.0718      3.024000
  2408         OS     76     DC    O3'   2408    -0.5232         16.000000   ; qtot -75.31
; residue  77 DG  rtp DG   q -1.0
  2409          P     77     DG      P   2409     1.1659      30.970000
  2410         O2     77     DG    O1P   2410    -0.7761         16.000000
  2411         O2     77     DG    O2P   2411    -0.7761         16.000000
  2412         OS     77     DG    O5'   2412    -0.4954         16.000000
  2413         CJ     77     DG    C5'   2413    -0.0069      7.978000
  2414         H1     77     DG   H5'1   2414     0.0754      3.024000
  2415         H1     77     DG   H5'2   2415     0.0754      3.024000
  2416         CT     77     DG    C4'   2416     0.1629      9.994000
  2417         H1     77     DG    H4'   2417     0.1176      3.024000
  2418         OS     77     DG    O4'   2418    -0.3691         16.000000
  2419         CT     77     DG    C1'   2419     0.0358      9.994000
  2420         H2     77     DG    H1'   2420     0.1746      3.024000
  2421         N*     77     DG     N9   2421     0.0577      14.010000
  2422         CK     77     DG     C8   2422     0.0736      9.994000
  2423         H5     77     DG     H8   2423     0.1997      3.024000
  2424         NB     77     DG     N7   2424    -0.5725      14.010000
  2425         CB     77     DG     C5   2425     0.1991      12.010000
  2426          C     77     DG     C6   2426     0.4918      12.010000
  2427          O     77     DG     O6   2427    -0.5699         16.000000
  2428         NA     77     DG     N1   2428    -0.5053      11.994000
  2429          H     77     DG     H1   2429      0.352      3.024000
  2430         CA     77     DG     C2   2430     0.7432      12.010000
  2431         N2     77     DG     N2   2431     -0.923      9.978000
  2432          H     77     DG    H21   2432     0.4235      3.024000
  2433          H     77     DG    H22   2433     0.4235      3.024000
  2434         NC     77     DG     N3   2434    -0.6636      14.010000
  2435         CB     77     DG     C4   2435     0.1814      12.010000
  2436         C7     77     DG    C3'   2436     0.0713      9.994000
  2437         H1     77     DG    H3'   2437     0.0985      3.024000
  2438         CT     77     DG    C2'   2438    -0.0854      7.978000
  2439         HC     77     DG   H2'1   2439     0.0718      3.024000
  2440         HC     77     DG   H2'2   2440     0.0718      3.024000
  2441         OS     77     DG    O3'   2441    -0.5232         16.000000   ; qtot -76.31
; residue  78 DG  rtp DG   q -1.0
  2442          P     78     DG      P   2442     1.1659      30.970000
  2443         O2     78     DG    O1P   2443    -0.7761         16.000000
  2444         O2     78     DG    O2P   2444    -0.7761         16.000000
  2445         OS     78     DG    O5'   2445    -0.4954         16.000000
  2446         CJ     78     DG    C5'   2446    -0.0069      7.978000
  2447         H1     78     DG   H5'1   2447     0.0754      3.024000
  2448         H1     78     DG   H5'2   2448     0.0754      3.024000
  2449         CT     78     DG    C4'   2449     0.1629      9.994000
  2450         H1     78     DG    H4'   2450     0.1176      3.024000
  2451         OS     78     DG    O4'   2451    -0.3691         16.000000
  2452         CT     78     DG    C1'   2452     0.0358      9.994000
  2453         H2     78     DG    H1'   2453     0.1746      3.024000
  2454         N*     78     DG     N9   2454     0.0577      14.010000
  2455         CK     78     DG     C8   2455     0.0736      9.994000
  2456         H5     78     DG     H8   2456     0.1997      3.024000
  2457         NB     78     DG     N7   2457    -0.5725      14.010000
  2458         CB     78     DG     C5   2458     0.1991      12.010000
  2459          C     78     DG     C6   2459     0.4918      12.010000
  2460          O     78     DG     O6   2460    -0.5699         16.000000
  2461         NA     78     DG     N1   2461    -0.5053      11.994000
  2462          H     78     DG     H1   2462      0.352      3.024000
  2463         CA     78     DG     C2   2463     0.7432      12.010000
  2464         N2     78     DG     N2   2464     -0.923      9.978000
  2465          H     78     DG    H21   2465     0.4235      3.024000
  2466          H     78     DG    H22   2466     0.4235      3.024000
  2467         NC     78     DG     N3   2467    -0.6636      14.010000
  2468         CB     78     DG     C4   2468     0.1814      12.010000
  2469         C7     78     DG    C3'   2469     0.0713      9.994000
  2470         H1     78     DG    H3'   2470     0.0985      3.024000
  2471         CT     78     DG    C2'   2471    -0.0854      7.978000
  2472         HC     78     DG   H2'1   2472     0.0718      3.024000
  2473         HC     78     DG   H2'2   2473     0.0718      3.024000
  2474         OS     78     DG    O3'   2474    -0.5232         16.000000   ; qtot -77.31
; residue  79 DC  rtp DC   q -1.0
  2475          P     79     DC      P   2475     1.1659      30.970000
  2476         O2     79     DC    O1P   2476    -0.7761         16.000000
  2477         O2     79     DC    O2P   2477    -0.7761         16.000000
  2478         OS     79     DC    O5'   2478    -0.4954         16.000000
  2479         CJ     79     DC    C5'   2479    -0.0069      7.978000
  2480         H1     79     DC   H5'1   2480     0.0754      3.024000
  2481         H1     79     DC   H5'2   2481     0.0754      3.024000
  2482         CT     79     DC    C4'   2482     0.1629      9.994000
  2483         H1     79     DC    H4'   2483     0.1176      3.024000
  2484         OS     79     DC    O4'   2484    -0.3691         16.000000
  2485         CT     79     DC    C1'   2485    -0.0116      9.994000
  2486         H2     79     DC    H1'   2486     0.1963      3.024000
  2487         N*     79     DC     N1   2487    -0.0339      14.010000
  2488         C1     79     DC     C6   2488    -0.0183      9.994000
  2489         H4     79     DC     H6   2489     0.2293      3.024000
  2490         C1     79     DC     C5   2490    -0.5222      9.994000
  2491         HA     79     DC     H5   2491     0.1863      3.024000
  2492         CA     79     DC     C4   2492     0.8439      12.010000
  2493         N2     79     DC     N4   2493    -0.9773      9.978000
  2494          H     79     DC    H41   2494     0.4314      3.024000
  2495          H     79     DC    H42   2495     0.4314      3.024000
  2496         NC     79     DC     N3   2496    -0.7748      14.010000
  2497          C     79     DC     C2   2497     0.7959      12.010000
  2498          O     79     DC     O2   2498    -0.6548         16.000000
  2499         C7     79     DC    C3'   2499     0.0713      9.994000
  2500         H1     79     DC    H3'   2500     0.0985      3.024000
  2501         CT     79     DC    C2'   2501    -0.0854      7.978000
  2502         HC     79     DC   H2'1   2502     0.0718      3.024000
  2503         HC     79     DC   H2'2   2503     0.0718      3.024000
  2504         OS     79     DC    O3'   2504    -0.5232         16.000000   ; qtot -78.31
; residue  80 DT  rtp DT   q -1.0
  2505          P     80     DT      P   2505     1.1659      30.970000
  2506         O2     80     DT    O1P   2506    -0.7761         16.000000
  2507         O2     80     DT    O2P   2507    -0.7761         16.000000
  2508         OS     80     DT    O5'   2508    -0.4954         16.000000
  2509         CJ     80     DT    C5'   2509    -0.0069      7.978000
  2510         H1     80     DT   H5'1   2510     0.0754      3.024000
  2511         H1     80     DT   H5'2   2511     0.0754      3.024000
  2512         CT     80     DT    C4'   2512     0.1629      9.994000
  2513         H1     80     DT    H4'   2513     0.1176      3.024000
  2514         OS     80     DT    O4'   2514    -0.3691         16.000000
  2515         CT     80     DT    C1'   2515      0.068      9.994000
  2516         H2     80     DT    H1'   2516     0.1804      3.024000
  2517         N*     80     DT     N1   2517    -0.0239      14.010000
  2518         CM     80     DT     C6   2518    -0.2209      9.994000
  2519         H4     80     DT     H6   2519     0.2607      3.024000
  2520         CM     80     DT     C5   2520     0.0025      12.010000
  2521         CT     80     DT     C7   2521    -0.2269      5.962000
  2522         HC     80     DT    H71   2522      0.077      3.024000
  2523         HC     80     DT    H72   2523      0.077      3.024000
  2524         HC     80     DT    H73   2524      0.077      3.024000
  2525          C     80     DT     C4   2525     0.5194      12.010000
  2526          O     80     DT     O4   2526    -0.5563         16.000000
  2527         NA     80     DT     N3   2527     -0.434      11.994000
  2528          H     80     DT     H3   2528      0.342      3.024000
  2529          C     80     DT     C2   2529     0.5677      12.010000
  2530          O     80     DT     O2   2530    -0.5881         16.000000
  2531         C7     80     DT    C3'   2531     0.0713      9.994000
  2532         H1     80     DT    H3'   2532     0.0985      3.024000
  2533         CT     80     DT    C2'   2533    -0.0854      7.978000
  2534         HC     80     DT   H2'1   2534     0.0718      3.024000
  2535         HC     80     DT   H2'2   2535     0.0718      3.024000
  2536         OS     80     DT    O3'   2536    -0.5232         16.000000   ; qtot -79.31
; residue  81 DC  rtp DC   q -1.0
  2537          P     81     DC      P   2537     1.1659      30.970000
  2538         O2     81     DC    O1P   2538    -0.7761         16.000000
  2539         O2     81     DC    O2P   2539    -0.7761         16.000000
  2540         OS     81     DC    O5'   2540    -0.4954         16.000000
  2541         CJ     81     DC    C5'   2541    -0.0069      7.978000
  2542         H1     81     DC   H5'1   2542     0.0754      3.024000
  2543         H1     81     DC   H5'2   2543     0.0754      3.024000
  2544         CT     81     DC    C4'   2544     0.1629      9.994000
  2545         H1     81     DC    H4'   2545     0.1176      3.024000
  2546         OS     81     DC    O4'   2546    -0.3691         16.000000
  2547         CT     81     DC    C1'   2547    -0.0116      9.994000
  2548         H2     81     DC    H1'   2548     0.1963      3.024000
  2549         N*     81     DC     N1   2549    -0.0339      14.010000
  2550         C1     81     DC     C6   2550    -0.0183      9.994000
  2551         H4     81     DC     H6   2551     0.2293      3.024000
  2552         C1     81     DC     C5   2552    -0.5222      9.994000
  2553         HA     81     DC     H5   2553     0.1863      3.024000
  2554         CA     81     DC     C4   2554     0.8439      12.010000
  2555         N2     81     DC     N4   2555    -0.9773      9.978000
  2556          H     81     DC    H41   2556     0.4314      3.024000
  2557          H     81     DC    H42   2557     0.4314      3.024000
  2558         NC     81     DC     N3   2558    -0.7748      14.010000
  2559          C     81     DC     C2   2559     0.7959      12.010000
  2560          O     81     DC     O2   2560    -0.6548         16.000000
  2561         C7     81     DC    C3'   2561     0.0713      9.994000
  2562         H1     81     DC    H3'   2562     0.0985      3.024000
  2563         CT     81     DC    C2'   2563    -0.0854      7.978000
  2564         HC     81     DC   H2'1   2564     0.0718      3.024000
  2565         HC     81     DC   H2'2   2565     0.0718      3.024000
  2566         OS     81     DC    O3'   2566    -0.5232         16.000000   ; qtot -80.31
; residue  82 DC  rtp DC   q -1.0
  2567          P     82     DC      P   2567     1.1659      30.970000
  2568         O2     82     DC    O1P   2568    -0.7761         16.000000
  2569         O2     82     DC    O2P   2569    -0.7761         16.000000
  2570         OS     82     DC    O5'   2570    -0.4954         16.000000
  2571         CJ     82     DC    C5'   2571    -0.0069      7.978000
  2572         H1     82     DC   H5'1   2572     0.0754      3.024000
  2573         H1     82     DC   H5'2   2573     0.0754      3.024000
  2574         CT     82     DC    C4'   2574     0.1629      9.994000
  2575         H1     82     DC    H4'   2575     0.1176      3.024000
  2576         OS     82     DC    O4'   2576    -0.3691         16.000000
  2577         CT     82     DC    C1'   2577    -0.0116      9.994000
  2578         H2     82     DC    H1'   2578     0.1963      3.024000
  2579         N*     82     DC     N1   2579    -0.0339      14.010000
  2580         C1     82     DC     C6   2580    -0.0183      9.994000
  2581         H4     82     DC     H6   2581     0.2293      3.024000
  2582         C1     82     DC     C5   2582    -0.5222      9.994000
  2583         HA     82     DC     H5   2583     0.1863      3.024000
  2584         CA     82     DC     C4   2584     0.8439      12.010000
  2585         N2     82     DC     N4   2585    -0.9773      9.978000
  2586          H     82     DC    H41   2586     0.4314      3.024000
  2587          H     82     DC    H42   2587     0.4314      3.024000
  2588         NC     82     DC     N3   2588    -0.7748      14.010000
  2589          C     82     DC     C2   2589     0.7959      12.010000
  2590          O     82     DC     O2   2590    -0.6548         16.000000
  2591         C7     82     DC    C3'   2591     0.0713      9.994000
  2592         H1     82     DC    H3'   2592     0.0985      3.024000
  2593         CT     82     DC    C2'   2593    -0.0854      7.978000
  2594         HC     82     DC   H2'1   2594     0.0718      3.024000
  2595         HC     82     DC   H2'2   2595     0.0718      3.024000
  2596         OS     82     DC    O3'   2596    -0.5232         16.000000   ; qtot -81.31
; residue  83 DC  rtp DC   q -1.0
  2597          P     83     DC      P   2597     1.1659      30.970000
  2598         O2     83     DC    O1P   2598    -0.7761         16.000000
  2599         O2     83     DC    O2P   2599    -0.7761         16.000000
  2600         OS     83     DC    O5'   2600    -0.4954         16.000000
  2601         CJ     83     DC    C5'   2601    -0.0069      7.978000
  2602         H1     83     DC   H5'1   2602     0.0754      3.024000
  2603         H1     83     DC   H5'2   2603     0.0754      3.024000
  2604         CT     83     DC    C4'   2604     0.1629      9.994000
  2605         H1     83     DC    H4'   2605     0.1176      3.024000
  2606         OS     83     DC    O4'   2606    -0.3691         16.000000
  2607         CT     83     DC    C1'   2607    -0.0116      9.994000
  2608         H2     83     DC    H1'   2608     0.1963      3.024000
  2609         N*     83     DC     N1   2609    -0.0339      14.010000
  2610         C1     83     DC     C6   2610    -0.0183      9.994000
  2611         H4     83     DC     H6   2611     0.2293      3.024000
  2612         C1     83     DC     C5   2612    -0.5222      9.994000
  2613         HA     83     DC     H5   2613     0.1863      3.024000
  2614         CA     83     DC     C4   2614     0.8439      12.010000
  2615         N2     83     DC     N4   2615    -0.9773      9.978000
  2616          H     83     DC    H41   2616     0.4314      3.024000
  2617          H     83     DC    H42   2617     0.4314      3.024000
  2618         NC     83     DC     N3   2618    -0.7748      14.010000
  2619          C     83     DC     C2   2619     0.7959      12.010000
  2620          O     83     DC     O2   2620    -0.6548         16.000000
  2621         C7     83     DC    C3'   2621     0.0713      9.994000
  2622         H1     83     DC    H3'   2622     0.0985      3.024000
  2623         CT     83     DC    C2'   2623    -0.0854      7.978000
  2624         HC     83     DC   H2'1   2624     0.0718      3.024000
  2625         HC     83     DC   H2'2   2625     0.0718      3.024000
  2626         OS     83     DC    O3'   2626    -0.5232         16.000000   ; qtot -82.31
; residue  84 DA  rtp DA   q -1.0
  2627          P     84     DA      P   2627     1.1659      30.970000
  2628         O2     84     DA    O1P   2628    -0.7761         16.000000
  2629         O2     84     DA    O2P   2629    -0.7761         16.000000
  2630         OS     84     DA    O5'   2630    -0.4954         16.000000
  2631         CJ     84     DA    C5'   2631    -0.0069      7.978000
  2632         H1     84     DA   H5'1   2632     0.0754      3.024000
  2633         H1     84     DA   H5'2   2633     0.0754      3.024000
  2634         CT     84     DA    C4'   2634     0.1629      9.994000
  2635         H1     84     DA    H4'   2635     0.1176      3.024000
  2636         OS     84     DA    O4'   2636    -0.3691         16.000000
  2637         CT     84     DA    C1'   2637     0.0431      9.994000
  2638         H2     84     DA    H1'   2638     0.1838      3.024000
  2639         N*     84     DA     N9   2639    -0.0268      14.010000
  2640         C2     84     DA     C8   2640     0.1607      9.994000
  2641         H5     84     DA     H8   2641     0.1877      3.024000
  2642         NB     84     DA     N7   2642    -0.6175      14.010000
  2643         CB     84     DA     C5   2643     0.0725      12.010000
  2644         CA     84     DA     C6   2644     0.6897      12.010000
  2645         N2     84     DA     N6   2645    -0.9123      9.978000
  2646          H     84     DA    H61   2646     0.4167      3.024000
  2647          H     84     DA    H62   2647     0.4167      3.024000
  2648         NC     84     DA     N1   2648    -0.7624      14.010000
  2649         CQ     84     DA     C2   2649     0.5716      9.994000
  2650         H5     84     DA     H2   2650     0.0598      3.024000
  2651         NC     84     DA     N3   2651    -0.7417      14.010000
  2652         CB     84     DA     C4   2652       0.38      12.010000
  2653         C7     84     DA    C3'   2653     0.0713      9.994000
  2654         H1     84     DA    H3'   2654     0.0985      3.024000
  2655         CT     84     DA    C2'   2655    -0.0854      7.978000
  2656         HC     84     DA   H2'1   2656     0.0718      3.024000
  2657         HC     84     DA   H2'2   2657     0.0718      3.024000
  2658         OS     84     DA    O3'   2658    -0.5232         16.000000   ; qtot -83.31
; residue  85 DG  rtp DG   q -1.0
  2659          P     85     DG      P   2659     1.1659      30.970000
  2660         O2     85     DG    O1P   2660    -0.7761         16.000000
  2661         O2     85     DG    O2P   2661    -0.7761         16.000000
  2662         OS     85     DG    O5'   2662    -0.4954         16.000000
  2663         CJ     85     DG    C5'   2663    -0.0069      7.978000
  2664         H1     85     DG   H5'1   2664     0.0754      3.024000
  2665         H1     85     DG   H5'2   2665     0.0754      3.024000
  2666         CT     85     DG    C4'   2666     0.1629      9.994000
  2667         H1     85     DG    H4'   2667     0.1176      3.024000
  2668         OS     85     DG    O4'   2668    -0.3691         16.000000
  2669         CT     85     DG    C1'   2669     0.0358      9.994000
  2670         H2     85     DG    H1'   2670     0.1746      3.024000
  2671         N*     85     DG     N9   2671     0.0577      14.010000
  2672         CK     85     DG     C8   2672     0.0736      9.994000
  2673         H5     85     DG     H8   2673     0.1997      3.024000
  2674         NB     85     DG     N7   2674    -0.5725      14.010000
  2675         CB     85     DG     C5   2675     0.1991      12.010000
  2676          C     85     DG     C6   2676     0.4918      12.010000
  2677          O     85     DG     O6   2677    -0.5699         16.000000
  2678         NA     85     DG     N1   2678    -0.5053      11.994000
  2679          H     85     DG     H1   2679      0.352      3.024000
  2680         CA     85     DG     C2   2680     0.7432      12.010000
  2681         N2     85     DG     N2   2681     -0.923      9.978000
  2682          H     85     DG    H21   2682     0.4235      3.024000
  2683          H     85     DG    H22   2683     0.4235      3.024000
  2684         NC     85     DG     N3   2684    -0.6636      14.010000
  2685         CB     85     DG     C4   2685     0.1814      12.010000
  2686         C7     85     DG    C3'   2686     0.0713      9.994000
  2687         H1     85     DG    H3'   2687     0.0985      3.024000
  2688         CT     85     DG    C2'   2688    -0.0854      7.978000
  2689         HC     85     DG   H2'1   2689     0.0718      3.024000
  2690         HC     85     DG   H2'2   2690     0.0718      3.024000
  2691         OS     85     DG    O3'   2691    -0.5232         16.000000   ; qtot -84.31
; residue  86 DG  rtp DG   q -1.0
  2692          P     86     DG      P   2692     1.1659      30.970000
  2693         O2     86     DG    O1P   2693    -0.7761         16.000000
  2694         O2     86     DG    O2P   2694    -0.7761         16.000000
  2695         OS     86     DG    O5'   2695    -0.4954         16.000000
  2696         CJ     86     DG    C5'   2696    -0.0069      7.978000
  2697         H1     86     DG   H5'1   2697     0.0754      3.024000
  2698         H1     86     DG   H5'2   2698     0.0754      3.024000
  2699         CT     86     DG    C4'   2699     0.1629      9.994000
  2700         H1     86     DG    H4'   2700     0.1176      3.024000
  2701         OS     86     DG    O4'   2701    -0.3691         16.000000
  2702         CT     86     DG    C1'   2702     0.0358      9.994000
  2703         H2     86     DG    H1'   2703     0.1746      3.024000
  2704         N*     86     DG     N9   2704     0.0577      14.010000
  2705         CK     86     DG     C8   2705     0.0736      9.994000
  2706         H5     86     DG     H8   2706     0.1997      3.024000
  2707         NB     86     DG     N7   2707    -0.5725      14.010000
  2708         CB     86     DG     C5   2708     0.1991      12.010000
  2709          C     86     DG     C6   2709     0.4918      12.010000
  2710          O     86     DG     O6   2710    -0.5699         16.000000
  2711         NA     86     DG     N1   2711    -0.5053      11.994000
  2712          H     86     DG     H1   2712      0.352      3.024000
  2713         CA     86     DG     C2   2713     0.7432      12.010000
  2714         N2     86     DG     N2   2714     -0.923      9.978000
  2715          H     86     DG    H21   2715     0.4235      3.024000
  2716          H     86     DG    H22   2716     0.4235      3.024000
  2717         NC     86     DG     N3   2717    -0.6636      14.010000
  2718         CB     86     DG     C4   2718     0.1814      12.010000
  2719         C7     86     DG    C3'   2719     0.0713      9.994000
  2720         H1     86     DG    H3'   2720     0.0985      3.024000
  2721         CT     86     DG    C2'   2721    -0.0854      7.978000
  2722         HC     86     DG   H2'1   2722     0.0718      3.024000
  2723         HC     86     DG   H2'2   2723     0.0718      3.024000
  2724         OS     86     DG    O3'   2724    -0.5232         16.000000   ; qtot -85.31
; residue  87 DT  rtp DT   q -1.0
  2725          P     87     DT      P   2725     1.1659      30.970000
  2726         O2     87     DT    O1P   2726    -0.7761         16.000000
  2727         O2     87     DT    O2P   2727    -0.7761         16.000000
  2728         OS     87     DT    O5'   2728    -0.4954         16.000000
  2729         CJ     87     DT    C5'   2729    -0.0069      7.978000
  2730         H1     87     DT   H5'1   2730     0.0754      3.024000
  2731         H1     87     DT   H5'2   2731     0.0754      3.024000
  2732         CT     87     DT    C4'   2732     0.1629      9.994000
  2733         H1     87     DT    H4'   2733     0.1176      3.024000
  2734         OS     87     DT    O4'   2734    -0.3691         16.000000
  2735         CT     87     DT    C1'   2735      0.068      9.994000
  2736         H2     87     DT    H1'   2736     0.1804      3.024000
  2737         N*     87     DT     N1   2737    -0.0239      14.010000
  2738         CM     87     DT     C6   2738    -0.2209      9.994000
  2739         H4     87     DT     H6   2739     0.2607      3.024000
  2740         CM     87     DT     C5   2740     0.0025      12.010000
  2741         CT     87     DT     C7   2741    -0.2269      5.962000
  2742         HC     87     DT    H71   2742      0.077      3.024000
  2743         HC     87     DT    H72   2743      0.077      3.024000
  2744         HC     87     DT    H73   2744      0.077      3.024000
  2745          C     87     DT     C4   2745     0.5194      12.010000
  2746          O     87     DT     O4   2746    -0.5563         16.000000
  2747         NA     87     DT     N3   2747     -0.434      11.994000
  2748          H     87     DT     H3   2748      0.342      3.024000
  2749          C     87     DT     C2   2749     0.5677      12.010000
  2750          O     87     DT     O2   2750    -0.5881         16.000000
  2751         C7     87     DT    C3'   2751     0.0713      9.994000
  2752         H1     87     DT    H3'   2752     0.0985      3.024000
  2753         CT     87     DT    C2'   2753    -0.0854      7.978000
  2754         HC     87     DT   H2'1   2754     0.0718      3.024000
  2755         HC     87     DT   H2'2   2755     0.0718      3.024000
  2756         OS     87     DT    O3'   2756    -0.5232         16.000000   ; qtot -86.31
; residue  88 DG  rtp DG   q -1.0
  2757          P     88     DG      P   2757     1.1659      30.970000
  2758         O2     88     DG    O1P   2758    -0.7761         16.000000
  2759         O2     88     DG    O2P   2759    -0.7761         16.000000
  2760         OS     88     DG    O5'   2760    -0.4954         16.000000
  2761         CJ     88     DG    C5'   2761    -0.0069      7.978000
  2762         H1     88     DG   H5'1   2762     0.0754      3.024000
  2763         H1     88     DG   H5'2   2763     0.0754      3.024000
  2764         CT     88     DG    C4'   2764     0.1629      9.994000
  2765         H1     88     DG    H4'   2765     0.1176      3.024000
  2766         OS     88     DG    O4'   2766    -0.3691         16.000000
  2767         CT     88     DG    C1'   2767     0.0358      9.994000
  2768         H2     88     DG    H1'   2768     0.1746      3.024000
  2769         N*     88     DG     N9   2769     0.0577      14.010000
  2770         CK     88     DG     C8   2770     0.0736      9.994000
  2771         H5     88     DG     H8   2771     0.1997      3.024000
  2772         NB     88     DG     N7   2772    -0.5725      14.010000
  2773         CB     88     DG     C5   2773     0.1991      12.010000
  2774          C     88     DG     C6   2774     0.4918      12.010000
  2775          O     88     DG     O6   2775    -0.5699         16.000000
  2776         NA     88     DG     N1   2776    -0.5053      11.994000
  2777          H     88     DG     H1   2777      0.352      3.024000
  2778         CA     88     DG     C2   2778     0.7432      12.010000
  2779         N2     88     DG     N2   2779     -0.923      9.978000
  2780          H     88     DG    H21   2780     0.4235      3.024000
  2781          H     88     DG    H22   2781     0.4235      3.024000
  2782         NC     88     DG     N3   2782    -0.6636      14.010000
  2783         CB     88     DG     C4   2783     0.1814      12.010000
  2784         C7     88     DG    C3'   2784     0.0713      9.994000
  2785         H1     88     DG    H3'   2785     0.0985      3.024000
  2786         CT     88     DG    C2'   2786    -0.0854      7.978000
  2787         HC     88     DG   H2'1   2787     0.0718      3.024000
  2788         HC     88     DG   H2'2   2788     0.0718      3.024000
  2789         OS     88     DG    O3'   2789    -0.5232         16.000000   ; qtot -87.31
; residue  89 DC  rtp DC   q -1.0
  2790          P     89     DC      P   2790     1.1659      30.970000
  2791         O2     89     DC    O1P   2791    -0.7761         16.000000
  2792         O2     89     DC    O2P   2792    -0.7761         16.000000
  2793         OS     89     DC    O5'   2793    -0.4954         16.000000
  2794         CJ     89     DC    C5'   2794    -0.0069      7.978000
  2795         H1     89     DC   H5'1   2795     0.0754      3.024000
  2796         H1     89     DC   H5'2   2796     0.0754      3.024000
  2797         CT     89     DC    C4'   2797     0.1629      9.994000
  2798         H1     89     DC    H4'   2798     0.1176      3.024000
  2799         OS     89     DC    O4'   2799    -0.3691         16.000000
  2800         CT     89     DC    C1'   2800    -0.0116      9.994000
  2801         H2     89     DC    H1'   2801     0.1963      3.024000
  2802         N*     89     DC     N1   2802    -0.0339      14.010000
  2803         C1     89     DC     C6   2803    -0.0183      9.994000
  2804         H4     89     DC     H6   2804     0.2293      3.024000
  2805         C1     89     DC     C5   2805    -0.5222      9.994000
  2806         HA     89     DC     H5   2806     0.1863      3.024000
  2807         CA     89     DC     C4   2807     0.8439      12.010000
  2808         N2     89     DC     N4   2808    -0.9773      9.978000
  2809          H     89     DC    H41   2809     0.4314      3.024000
  2810          H     89     DC    H42   2810     0.4314      3.024000
  2811         NC     89     DC     N3   2811    -0.7748      14.010000
  2812          C     89     DC     C2   2812     0.7959      12.010000
  2813          O     89     DC     O2   2813    -0.6548         16.000000
  2814         C7     89     DC    C3'   2814     0.0713      9.994000
  2815         H1     89     DC    H3'   2815     0.0985      3.024000
  2816         CT     89     DC    C2'   2816    -0.0854      7.978000
  2817         HC     89     DC   H2'1   2817     0.0718      3.024000
  2818         HC     89     DC   H2'2   2818     0.0718      3.024000
  2819         OS     89     DC    O3'   2819    -0.5232         16.000000   ; qtot -88.31
; residue  90 DG  rtp DG   q -1.0
  2820          P     90     DG      P   2820     1.1659      30.970000
  2821         O2     90     DG    O1P   2821    -0.7761         16.000000
  2822         O2     90     DG    O2P   2822    -0.7761         16.000000
  2823         OS     90     DG    O5'   2823    -0.4954         16.000000
  2824         CJ     90     DG    C5'   2824    -0.0069      7.978000
  2825         H1     90     DG   H5'1   2825     0.0754      3.024000
  2826         H1     90     DG   H5'2   2826     0.0754      3.024000
  2827         CT     90     DG    C4'   2827     0.1629      9.994000
  2828         H1     90     DG    H4'   2828     0.1176      3.024000
  2829         OS     90     DG    O4'   2829    -0.3691         16.000000
  2830         CT     90     DG    C1'   2830     0.0358      9.994000
  2831         H2     90     DG    H1'   2831     0.1746      3.024000
  2832         N*     90     DG     N9   2832     0.0577      14.010000
  2833         CK     90     DG     C8   2833     0.0736      9.994000
  2834         H5     90     DG     H8   2834     0.1997      3.024000
  2835         NB     90     DG     N7   2835    -0.5725      14.010000
  2836         CB     90     DG     C5   2836     0.1991      12.010000
  2837          C     90     DG     C6   2837     0.4918      12.010000
  2838          O     90     DG     O6   2838    -0.5699         16.000000
  2839         NA     90     DG     N1   2839    -0.5053      11.994000
  2840          H     90     DG     H1   2840      0.352      3.024000
  2841         CA     90     DG     C2   2841     0.7432      12.010000
  2842         N2     90     DG     N2   2842     -0.923      9.978000
  2843          H     90     DG    H21   2843     0.4235      3.024000
  2844          H     90     DG    H22   2844     0.4235      3.024000
  2845         NC     90     DG     N3   2845    -0.6636      14.010000
  2846         CB     90     DG     C4   2846     0.1814      12.010000
  2847         C7     90     DG    C3'   2847     0.0713      9.994000
  2848         H1     90     DG    H3'   2848     0.0985      3.024000
  2849         CT     90     DG    C2'   2849    -0.0854      7.978000
  2850         HC     90     DG   H2'1   2850     0.0718      3.024000
  2851         HC     90     DG   H2'2   2851     0.0718      3.024000
  2852         OS     90     DG    O3'   2852    -0.5232         16.000000   ; qtot -89.31
; residue  91 DG  rtp DG   q -1.0
  2853          P     91     DG      P   2853     1.1659      30.970000
  2854         O2     91     DG    O1P   2854    -0.7761         16.000000
  2855         O2     91     DG    O2P   2855    -0.7761         16.000000
  2856         OS     91     DG    O5'   2856    -0.4954         16.000000
  2857         CJ     91     DG    C5'   2857    -0.0069      7.978000
  2858         H1     91     DG   H5'1   2858     0.0754      3.024000
  2859         H1     91     DG   H5'2   2859     0.0754      3.024000
  2860         CT     91     DG    C4'   2860     0.1629      9.994000
  2861         H1     91     DG    H4'   2861     0.1176      3.024000
  2862         OS     91     DG    O4'   2862    -0.3691         16.000000
  2863         CT     91     DG    C1'   2863     0.0358      9.994000
  2864         H2     91     DG    H1'   2864     0.1746      3.024000
  2865         N*     91     DG     N9   2865     0.0577      14.010000
  2866         CK     91     DG     C8   2866     0.0736      9.994000
  2867         H5     91     DG     H8   2867     0.1997      3.024000
  2868         NB     91     DG     N7   2868    -0.5725      14.010000
  2869         CB     91     DG     C5   2869     0.1991      12.010000
  2870          C     91     DG     C6   2870     0.4918      12.010000
  2871          O     91     DG     O6   2871    -0.5699         16.000000
  2872         NA     91     DG     N1   2872    -0.5053      11.994000
  2873          H     91     DG     H1   2873      0.352      3.024000
  2874         CA     91     DG     C2   2874     0.7432      12.010000
  2875         N2     91     DG     N2   2875     -0.923      9.978000
  2876          H     91     DG    H21   2876     0.4235      3.024000
  2877          H     91     DG    H22   2877     0.4235      3.024000
  2878         NC     91     DG     N3   2878    -0.6636      14.010000
  2879         CB     91     DG     C4   2879     0.1814      12.010000
  2880         C7     91     DG    C3'   2880     0.0713      9.994000
  2881         H1     91     DG    H3'   2881     0.0985      3.024000
  2882         CT     91     DG    C2'   2882    -0.0854      7.978000
  2883         HC     91     DG   H2'1   2883     0.0718      3.024000
  2884         HC     91     DG   H2'2   2884     0.0718      3.024000
  2885         OS     91     DG    O3'   2885    -0.5232         16.000000   ; qtot -90.31
; residue  92 DG  rtp DG   q -1.0
  2886          P     92     DG      P   2886     1.1659      30.970000
  2887         O2     92     DG    O1P   2887    -0.7761         16.000000
  2888         O2     92     DG    O2P   2888    -0.7761         16.000000
  2889         OS     92     DG    O5'   2889    -0.4954         16.000000
  2890         CJ     92     DG    C5'   2890    -0.0069      7.978000
  2891         H1     92     DG   H5'1   2891     0.0754      3.024000
  2892         H1     92     DG   H5'2   2892     0.0754      3.024000
  2893         CT     92     DG    C4'   2893     0.1629      9.994000
  2894         H1     92     DG    H4'   2894     0.1176      3.024000
  2895         OS     92     DG    O4'   2895    -0.3691         16.000000
  2896         CT     92     DG    C1'   2896     0.0358      9.994000
  2897         H2     92     DG    H1'   2897     0.1746      3.024000
  2898         N*     92     DG     N9   2898     0.0577      14.010000
  2899         CK     92     DG     C8   2899     0.0736      9.994000
  2900         H5     92     DG     H8   2900     0.1997      3.024000
  2901         NB     92     DG     N7   2901    -0.5725      14.010000
  2902         CB     92     DG     C5   2902     0.1991      12.010000
  2903          C     92     DG     C6   2903     0.4918      12.010000
  2904          O     92     DG     O6   2904    -0.5699         16.000000
  2905         NA     92     DG     N1   2905    -0.5053      11.994000
  2906          H     92     DG     H1   2906      0.352      3.024000
  2907         CA     92     DG     C2   2907     0.7432      12.010000
  2908         N2     92     DG     N2   2908     -0.923      9.978000
  2909          H     92     DG    H21   2909     0.4235      3.024000
  2910          H     92     DG    H22   2910     0.4235      3.024000
  2911         NC     92     DG     N3   2911    -0.6636      14.010000
  2912         CB     92     DG     C4   2912     0.1814      12.010000
  2913         C7     92     DG    C3'   2913     0.0713      9.994000
  2914         H1     92     DG    H3'   2914     0.0985      3.024000
  2915         CT     92     DG    C2'   2915    -0.0854      7.978000
  2916         HC     92     DG   H2'1   2916     0.0718      3.024000
  2917         HC     92     DG   H2'2   2917     0.0718      3.024000
  2918         OS     92     DG    O3'   2918    -0.5232         16.000000   ; qtot -91.31
; residue  93 DA  rtp DA   q -1.0
  2919          P     93     DA      P   2919     1.1659      30.970000
  2920         O2     93     DA    O1P   2920    -0.7761         16.000000
  2921         O2     93     DA    O2P   2921    -0.7761         16.000000
  2922         OS     93     DA    O5'   2922    -0.4954         16.000000
  2923         CJ     93     DA    C5'   2923    -0.0069      7.978000
  2924         H1     93     DA   H5'1   2924     0.0754      3.024000
  2925         H1     93     DA   H5'2   2925     0.0754      3.024000
  2926         CT     93     DA    C4'   2926     0.1629      9.994000
  2927         H1     93     DA    H4'   2927     0.1176      3.024000
  2928         OS     93     DA    O4'   2928    -0.3691         16.000000
  2929         CT     93     DA    C1'   2929     0.0431      9.994000
  2930         H2     93     DA    H1'   2930     0.1838      3.024000
  2931         N*     93     DA     N9   2931    -0.0268      14.010000
  2932         C2     93     DA     C8   2932     0.1607      9.994000
  2933         H5     93     DA     H8   2933     0.1877      3.024000
  2934         NB     93     DA     N7   2934    -0.6175      14.010000
  2935         CB     93     DA     C5   2935     0.0725      12.010000
  2936         CA     93     DA     C6   2936     0.6897      12.010000
  2937         N2     93     DA     N6   2937    -0.9123      9.978000
  2938          H     93     DA    H61   2938     0.4167      3.024000
  2939          H     93     DA    H62   2939     0.4167      3.024000
  2940         NC     93     DA     N1   2940    -0.7624      14.010000
  2941         CQ     93     DA     C2   2941     0.5716      9.994000
  2942         H5     93     DA     H2   2942     0.0598      3.024000
  2943         NC     93     DA     N3   2943    -0.7417      14.010000
  2944         CB     93     DA     C4   2944       0.38      12.010000
  2945         C7     93     DA    C3'   2945     0.0713      9.994000
  2946         H1     93     DA    H3'   2946     0.0985      3.024000
  2947         CT     93     DA    C2'   2947    -0.0854      7.978000
  2948         HC     93     DA   H2'1   2948     0.0718      3.024000
  2949         HC     93     DA   H2'2   2949     0.0718      3.024000
  2950         OS     93     DA    O3'   2950    -0.5232         16.000000   ; qtot -92.31
; residue  94 DG  rtp DG   q -1.0
  2951          P     94     DG      P   2951     1.1659      30.970000
  2952         O2     94     DG    O1P   2952    -0.7761         16.000000
  2953         O2     94     DG    O2P   2953    -0.7761         16.000000
  2954         OS     94     DG    O5'   2954    -0.4954         16.000000
  2955         CJ     94     DG    C5'   2955    -0.0069      7.978000
  2956         H1     94     DG   H5'1   2956     0.0754      3.024000
  2957         H1     94     DG   H5'2   2957     0.0754      3.024000
  2958         CT     94     DG    C4'   2958     0.1629      9.994000
  2959         H1     94     DG    H4'   2959     0.1176      3.024000
  2960         OS     94     DG    O4'   2960    -0.3691         16.000000
  2961         CT     94     DG    C1'   2961     0.0358      9.994000
  2962         H2     94     DG    H1'   2962     0.1746      3.024000
  2963         N*     94     DG     N9   2963     0.0577      14.010000
  2964         CK     94     DG     C8   2964     0.0736      9.994000
  2965         H5     94     DG     H8   2965     0.1997      3.024000
  2966         NB     94     DG     N7   2966    -0.5725      14.010000
  2967         CB     94     DG     C5   2967     0.1991      12.010000
  2968          C     94     DG     C6   2968     0.4918      12.010000
  2969          O     94     DG     O6   2969    -0.5699         16.000000
  2970         NA     94     DG     N1   2970    -0.5053      11.994000
  2971          H     94     DG     H1   2971      0.352      3.024000
  2972         CA     94     DG     C2   2972     0.7432      12.010000
  2973         N2     94     DG     N2   2973     -0.923      9.978000
  2974          H     94     DG    H21   2974     0.4235      3.024000
  2975          H     94     DG    H22   2975     0.4235      3.024000
  2976         NC     94     DG     N3   2976    -0.6636      14.010000
  2977         CB     94     DG     C4   2977     0.1814      12.010000
  2978         C7     94     DG    C3'   2978     0.0713      9.994000
  2979         H1     94     DG    H3'   2979     0.0985      3.024000
  2980         CT     94     DG    C2'   2980    -0.0854      7.978000
  2981         HC     94     DG   H2'1   2981     0.0718      3.024000
  2982         HC     94     DG   H2'2   2982     0.0718      3.024000
  2983         OS     94     DG    O3'   2983    -0.5232         16.000000   ; qtot -93.31
; residue  95 DA  rtp DA   q -1.0
  2984          P     95     DA      P   2984     1.1659      30.970000
  2985         O2     95     DA    O1P   2985    -0.7761         16.000000
  2986         O2     95     DA    O2P   2986    -0.7761         16.000000
  2987         OS     95     DA    O5'   2987    -0.4954         16.000000
  2988         CJ     95     DA    C5'   2988    -0.0069      7.978000
  2989         H1     95     DA   H5'1   2989     0.0754      3.024000
  2990         H1     95     DA   H5'2   2990     0.0754      3.024000
  2991         CT     95     DA    C4'   2991     0.1629      9.994000
  2992         H1     95     DA    H4'   2992     0.1176      3.024000
  2993         OS     95     DA    O4'   2993    -0.3691         16.000000
  2994         CT     95     DA    C1'   2994     0.0431      9.994000
  2995         H2     95     DA    H1'   2995     0.1838      3.024000
  2996         N*     95     DA     N9   2996    -0.0268      14.010000
  2997         C2     95     DA     C8   2997     0.1607      9.994000
  2998         H5     95     DA     H8   2998     0.1877      3.024000
  2999         NB     95     DA     N7   2999    -0.6175      14.010000
  3000         CB     95     DA     C5   3000     0.0725      12.010000
  3001         CA     95     DA     C6   3001     0.6897      12.010000
  3002         N2     95     DA     N6   3002    -0.9123      9.978000
  3003          H     95     DA    H61   3003     0.4167      3.024000
  3004          H     95     DA    H62   3004     0.4167      3.024000
  3005         NC     95     DA     N1   3005    -0.7624      14.010000
  3006         CQ     95     DA     C2   3006     0.5716      9.994000
  3007         H5     95     DA     H2   3007     0.0598      3.024000
  3008         NC     95     DA     N3   3008    -0.7417      14.010000
  3009         CB     95     DA     C4   3009       0.38      12.010000
  3010         C7     95     DA    C3'   3010     0.0713      9.994000
  3011         H1     95     DA    H3'   3011     0.0985      3.024000
  3012         CT     95     DA    C2'   3012    -0.0854      7.978000
  3013         HC     95     DA   H2'1   3013     0.0718      3.024000
  3014         HC     95     DA   H2'2   3014     0.0718      3.024000
  3015         OS     95     DA    O3'   3015    -0.5232         16.000000   ; qtot -94.31
; residue  96 DG  rtp DG   q -1.0
  3016          P     96     DG      P   3016     1.1659      30.970000
  3017         O2     96     DG    O1P   3017    -0.7761         16.000000
  3018         O2     96     DG    O2P   3018    -0.7761         16.000000
  3019         OS     96     DG    O5'   3019    -0.4954         16.000000
  3020         CJ     96     DG    C5'   3020    -0.0069      7.978000
  3021         H1     96     DG   H5'1   3021     0.0754      3.024000
  3022         H1     96     DG   H5'2   3022     0.0754      3.024000
  3023         CT     96     DG    C4'   3023     0.1629      9.994000
  3024         H1     96     DG    H4'   3024     0.1176      3.024000
  3025         OS     96     DG    O4'   3025    -0.3691         16.000000
  3026         CT     96     DG    C1'   3026     0.0358      9.994000
  3027         H2     96     DG    H1'   3027     0.1746      3.024000
  3028         N*     96     DG     N9   3028     0.0577      14.010000
  3029         CK     96     DG     C8   3029     0.0736      9.994000
  3030         H5     96     DG     H8   3030     0.1997      3.024000
  3031         NB     96     DG     N7   3031    -0.5725      14.010000
  3032         CB     96     DG     C5   3032     0.1991      12.010000
  3033          C     96     DG     C6   3033     0.4918      12.010000
  3034          O     96     DG     O6   3034    -0.5699         16.000000
  3035         NA     96     DG     N1   3035    -0.5053      11.994000
  3036          H     96     DG     H1   3036      0.352      3.024000
  3037         CA     96     DG     C2   3037     0.7432      12.010000
  3038         N2     96     DG     N2   3038     -0.923      9.978000
  3039          H     96     DG    H21   3039     0.4235      3.024000
  3040          H     96     DG    H22   3040     0.4235      3.024000
  3041         NC     96     DG     N3   3041    -0.6636      14.010000
  3042         CB     96     DG     C4   3042     0.1814      12.010000
  3043         C7     96     DG    C3'   3043     0.0713      9.994000
  3044         H1     96     DG    H3'   3044     0.0985      3.024000
  3045         CT     96     DG    C2'   3045    -0.0854      7.978000
  3046         HC     96     DG   H2'1   3046     0.0718      3.024000
  3047         HC     96     DG   H2'2   3047     0.0718      3.024000
  3048         OS     96     DG    O3'   3048    -0.5232         16.000000   ; qtot -95.31
; residue  97 DA  rtp DA   q -1.0
  3049          P     97     DA      P   3049     1.1659      30.970000
  3050         O2     97     DA    O1P   3050    -0.7761         16.000000
  3051         O2     97     DA    O2P   3051    -0.7761         16.000000
  3052         OS     97     DA    O5'   3052    -0.4954         16.000000
  3053         CJ     97     DA    C5'   3053    -0.0069      7.978000
  3054         H1     97     DA   H5'1   3054     0.0754      3.024000
  3055         H1     97     DA   H5'2   3055     0.0754      3.024000
  3056         CT     97     DA    C4'   3056     0.1629      9.994000
  3057         H1     97     DA    H4'   3057     0.1176      3.024000
  3058         OS     97     DA    O4'   3058    -0.3691         16.000000
  3059         CT     97     DA    C1'   3059     0.0431      9.994000
  3060         H2     97     DA    H1'   3060     0.1838      3.024000
  3061         N*     97     DA     N9   3061    -0.0268      14.010000
  3062         C2     97     DA     C8   3062     0.1607      9.994000
  3063         H5     97     DA     H8   3063     0.1877      3.024000
  3064         NB     97     DA     N7   3064    -0.6175      14.010000
  3065         CB     97     DA     C5   3065     0.0725      12.010000
  3066         CA     97     DA     C6   3066     0.6897      12.010000
  3067         N2     97     DA     N6   3067    -0.9123      9.978000
  3068          H     97     DA    H61   3068     0.4167      3.024000
  3069          H     97     DA    H62   3069     0.4167      3.024000
  3070         NC     97     DA     N1   3070    -0.7624      14.010000
  3071         CQ     97     DA     C2   3071     0.5716      9.994000
  3072         H5     97     DA     H2   3072     0.0598      3.024000
  3073         NC     97     DA     N3   3073    -0.7417      14.010000
  3074         CB     97     DA     C4   3074       0.38      12.010000
  3075         C7     97     DA    C3'   3075     0.0713      9.994000
  3076         H1     97     DA    H3'   3076     0.0985      3.024000
  3077         CT     97     DA    C2'   3077    -0.0854      7.978000
  3078         HC     97     DA   H2'1   3078     0.0718      3.024000
  3079         HC     97     DA   H2'2   3079     0.0718      3.024000
  3080         OS     97     DA    O3'   3080    -0.5232         16.000000   ; qtot -96.31
; residue  98 DG  rtp DG   q -1.0
  3081          P     98     DG      P   3081     1.1659      30.970000
  3082         O2     98     DG    O1P   3082    -0.7761         16.000000
  3083         O2     98     DG    O2P   3083    -0.7761         16.000000
  3084         OS     98     DG    O5'   3084    -0.4954         16.000000
  3085         CJ     98     DG    C5'   3085    -0.0069      7.978000
  3086         H1     98     DG   H5'1   3086     0.0754      3.024000
  3087         H1     98     DG   H5'2   3087     0.0754      3.024000
  3088         CT     98     DG    C4'   3088     0.1629      9.994000
  3089         H1     98     DG    H4'   3089     0.1176      3.024000
  3090         OS     98     DG    O4'   3090    -0.3691         16.000000
  3091         CT     98     DG    C1'   3091     0.0358      9.994000
  3092         H2     98     DG    H1'   3092     0.1746      3.024000
  3093         N*     98     DG     N9   3093     0.0577      14.010000
  3094         CK     98     DG     C8   3094     0.0736      9.994000
  3095         H5     98     DG     H8   3095     0.1997      3.024000
  3096         NB     98     DG     N7   3096    -0.5725      14.010000
  3097         CB     98     DG     C5   3097     0.1991      12.010000
  3098          C     98     DG     C6   3098     0.4918      12.010000
  3099          O     98     DG     O6   3099    -0.5699         16.000000
  3100         NA     98     DG     N1   3100    -0.5053      11.994000
  3101          H     98     DG     H1   3101      0.352      3.024000
  3102         CA     98     DG     C2   3102     0.7432      12.010000
  3103         N2     98     DG     N2   3103     -0.923      9.978000
  3104          H     98     DG    H21   3104     0.4235      3.024000
  3105          H     98     DG    H22   3105     0.4235      3.024000
  3106         NC     98     DG     N3   3106    -0.6636      14.010000
  3107         CB     98     DG     C4   3107     0.1814      12.010000
  3108         C7     98     DG    C3'   3108     0.0713      9.994000
  3109         H1     98     DG    H3'   3109     0.0985      3.024000
  3110         CT     98     DG    C2'   3110    -0.0854      7.978000
  3111         HC     98     DG   H2'1   3111     0.0718      3.024000
  3112         HC     98     DG   H2'2   3112     0.0718      3.024000
  3113         OS     98     DG    O3'   3113    -0.5232         16.000000   ; qtot -97.31
; residue  99 DG  rtp DG   q -1.0
  3114          P     99     DG      P   3114     1.1659      30.970000
  3115         O2     99     DG    O1P   3115    -0.7761         16.000000
  3116         O2     99     DG    O2P   3116    -0.7761         16.000000
  3117         OS     99     DG    O5'   3117    -0.4954         16.000000
  3118         CJ     99     DG    C5'   3118    -0.0069      7.978000
  3119         H1     99     DG   H5'1   3119     0.0754      3.024000
  3120         H1     99     DG   H5'2   3120     0.0754      3.024000
  3121         CT     99     DG    C4'   3121     0.1629      9.994000
  3122         H1     99     DG    H4'   3122     0.1176      3.024000
  3123         OS     99     DG    O4'   3123    -0.3691         16.000000
  3124         CT     99     DG    C1'   3124     0.0358      9.994000
  3125         H2     99     DG    H1'   3125     0.1746      3.024000
  3126         N*     99     DG     N9   3126     0.0577      14.010000
  3127         CK     99     DG     C8   3127     0.0736      9.994000
  3128         H5     99     DG     H8   3128     0.1997      3.024000
  3129         NB     99     DG     N7   3129    -0.5725      14.010000
  3130         CB     99     DG     C5   3130     0.1991      12.010000
  3131          C     99     DG     C6   3131     0.4918      12.010000
  3132          O     99     DG     O6   3132    -0.5699         16.000000
  3133         NA     99     DG     N1   3133    -0.5053      11.994000
  3134          H     99     DG     H1   3134      0.352      3.024000
  3135         CA     99     DG     C2   3135     0.7432      12.010000
  3136         N2     99     DG     N2   3136     -0.923      9.978000
  3137          H     99     DG    H21   3137     0.4235      3.024000
  3138          H     99     DG    H22   3138     0.4235      3.024000
  3139         NC     99     DG     N3   3139    -0.6636      14.010000
  3140         CB     99     DG     C4   3140     0.1814      12.010000
  3141         C7     99     DG    C3'   3141     0.0713      9.994000
  3142         H1     99     DG    H3'   3142     0.0985      3.024000
  3143         CT     99     DG    C2'   3143    -0.0854      7.978000
  3144         HC     99     DG   H2'1   3144     0.0718      3.024000
  3145         HC     99     DG   H2'2   3145     0.0718      3.024000
  3146         OS     99     DG    O3'   3146    -0.5232         16.000000   ; qtot -98.31
; residue 100 DT  rtp DT   q -1.0
  3147          P    100     DT      P   3147     1.1659      30.970000
  3148         O2    100     DT    O1P   3148    -0.7761         16.000000
  3149         O2    100     DT    O2P   3149    -0.7761         16.000000
  3150         OS    100     DT    O5'   3150    -0.4954         16.000000
  3151         CJ    100     DT    C5'   3151    -0.0069      7.978000
  3152         H1    100     DT   H5'1   3152     0.0754      3.024000
  3153         H1    100     DT   H5'2   3153     0.0754      3.024000
  3154         CT    100     DT    C4'   3154     0.1629      9.994000
  3155         H1    100     DT    H4'   3155     0.1176      3.024000
  3156         OS    100     DT    O4'   3156    -0.3691         16.000000
  3157         CT    100     DT    C1'   3157      0.068      9.994000
  3158         H2    100     DT    H1'   3158     0.1804      3.024000
  3159         N*    100     DT     N1   3159    -0.0239      14.010000
  3160         CM    100     DT     C6   3160    -0.2209      9.994000
  3161         H4    100     DT     H6   3161     0.2607      3.024000
  3162         CM    100     DT     C5   3162     0.0025      12.010000
  3163         CT    100     DT     C7   3163    -0.2269      5.962000
  3164         HC    100     DT    H71   3164      0.077      3.024000
  3165         HC    100     DT    H72   3165      0.077      3.024000
  3166         HC    100     DT    H73   3166      0.077      3.024000
  3167          C    100     DT     C4   3167     0.5194      12.010000
  3168          O    100     DT     O4   3168    -0.5563         16.000000
  3169         NA    100     DT     N3   3169     -0.434      11.994000
  3170          H    100     DT     H3   3170      0.342      3.024000
  3171          C    100     DT     C2   3171     0.5677      12.010000
  3172          O    100     DT     O2   3172    -0.5881         16.000000
  3173         C7    100     DT    C3'   3173     0.0713      9.994000
  3174         H1    100     DT    H3'   3174     0.0985      3.024000
  3175         CT    100     DT    C2'   3175    -0.0854      7.978000
  3176         HC    100     DT   H2'1   3176     0.0718      3.024000
  3177         HC    100     DT   H2'2   3177     0.0718      3.024000
  3178         OS    100     DT    O3'   3178    -0.5232         16.000000   ; qtot -99.31
; residue 101 DA  rtp DA   q -1.0
  3179          P    101     DA      P   3179     1.1659      30.970000
  3180         O2    101     DA    O1P   3180    -0.7761         16.000000
  3181         O2    101     DA    O2P   3181    -0.7761         16.000000
  3182         OS    101     DA    O5'   3182    -0.4954         16.000000
  3183         CJ    101     DA    C5'   3183    -0.0069      7.978000
  3184         H1    101     DA   H5'1   3184     0.0754      3.024000
  3185         H1    101     DA   H5'2   3185     0.0754      3.024000
  3186         CT    101     DA    C4'   3186     0.1629      9.994000
  3187         H1    101     DA    H4'   3187     0.1176      3.024000
  3188         OS    101     DA    O4'   3188    -0.3691         16.000000
  3189         CT    101     DA    C1'   3189     0.0431      9.994000
  3190         H2    101     DA    H1'   3190     0.1838      3.024000
  3191         N*    101     DA     N9   3191    -0.0268      14.010000
  3192         C2    101     DA     C8   3192     0.1607      9.994000
  3193         H5    101     DA     H8   3193     0.1877      3.024000
  3194         NB    101     DA     N7   3194    -0.6175      14.010000
  3195         CB    101     DA     C5   3195     0.0725      12.010000
  3196         CA    101     DA     C6   3196     0.6897      12.010000
  3197         N2    101     DA     N6   3197    -0.9123      9.978000
  3198          H    101     DA    H61   3198     0.4167      3.024000
  3199          H    101     DA    H62   3199     0.4167      3.024000
  3200         NC    101     DA     N1   3200    -0.7624      14.010000
  3201         CQ    101     DA     C2   3201     0.5716      9.994000
  3202         H5    101     DA     H2   3202     0.0598      3.024000
  3203         NC    101     DA     N3   3203    -0.7417      14.010000
  3204         CB    101     DA     C4   3204       0.38      12.010000
  3205         C7    101     DA    C3'   3205     0.0713      9.994000
  3206         H1    101     DA    H3'   3206     0.0985      3.024000
  3207         CT    101     DA    C2'   3207    -0.0854      7.978000
  3208         HC    101     DA   H2'1   3208     0.0718      3.024000
  3209         HC    101     DA   H2'2   3209     0.0718      3.024000
  3210         OS    101     DA    O3'   3210    -0.5232         16.000000   ; qtot -100.3
; residue 102 DC  rtp DC   q -1.0
  3211          P    102     DC      P   3211     1.1659      30.970000
  3212         O2    102     DC    O1P   3212    -0.7761         16.000000
  3213         O2    102     DC    O2P   3213    -0.7761         16.000000
  3214         OS    102     DC    O5'   3214    -0.4954         16.000000
  3215         CJ    102     DC    C5'   3215    -0.0069      7.978000
  3216         H1    102     DC   H5'1   3216     0.0754      3.024000
  3217         H1    102     DC   H5'2   3217     0.0754      3.024000
  3218         CT    102     DC    C4'   3218     0.1629      9.994000
  3219         H1    102     DC    H4'   3219     0.1176      3.024000
  3220         OS    102     DC    O4'   3220    -0.3691         16.000000
  3221         CT    102     DC    C1'   3221    -0.0116      9.994000
  3222         H2    102     DC    H1'   3222     0.1963      3.024000
  3223         N*    102     DC     N1   3223    -0.0339      14.010000
  3224         C1    102     DC     C6   3224    -0.0183      9.994000
  3225         H4    102     DC     H6   3225     0.2293      3.024000
  3226         C1    102     DC     C5   3226    -0.5222      9.994000
  3227         HA    102     DC     H5   3227     0.1863      3.024000
  3228         CA    102     DC     C4   3228     0.8439      12.010000
  3229         N2    102     DC     N4   3229    -0.9773      9.978000
  3230          H    102     DC    H41   3230     0.4314      3.024000
  3231          H    102     DC    H42   3231     0.4314      3.024000
  3232         NC    102     DC     N3   3232    -0.7748      14.010000
  3233          C    102     DC     C2   3233     0.7959      12.010000
  3234          O    102     DC     O2   3234    -0.6548         16.000000
  3235         C7    102     DC    C3'   3235     0.0713      9.994000
  3236         H1    102     DC    H3'   3236     0.0985      3.024000
  3237         CT    102     DC    C2'   3237    -0.0854      7.978000
  3238         HC    102     DC   H2'1   3238     0.0718      3.024000
  3239         HC    102     DC   H2'2   3239     0.0718      3.024000
  3240         OS    102     DC    O3'   3240    -0.5232         16.000000   ; qtot -101.3
; residue 103 DG  rtp DG   q -1.0
  3241          P    103     DG      P   3241     1.1659      30.970000
  3242         O2    103     DG    O1P   3242    -0.7761         16.000000
  3243         O2    103     DG    O2P   3243    -0.7761         16.000000
  3244         OS    103     DG    O5'   3244    -0.4954         16.000000
  3245         CJ    103     DG    C5'   3245    -0.0069      7.978000
  3246         H1    103     DG   H5'1   3246     0.0754      3.024000
  3247         H1    103     DG   H5'2   3247     0.0754      3.024000
  3248         CT    103     DG    C4'   3248     0.1629      9.994000
  3249         H1    103     DG    H4'   3249     0.1176      3.024000
  3250         OS    103     DG    O4'   3250    -0.3691         16.000000
  3251         CT    103     DG    C1'   3251     0.0358      9.994000
  3252         H2    103     DG    H1'   3252     0.1746      3.024000
  3253         N*    103     DG     N9   3253     0.0577      14.010000
  3254         CK    103     DG     C8   3254     0.0736      9.994000
  3255         H5    103     DG     H8   3255     0.1997      3.024000
  3256         NB    103     DG     N7   3256    -0.5725      14.010000
  3257         CB    103     DG     C5   3257     0.1991      12.010000
  3258          C    103     DG     C6   3258     0.4918      12.010000
  3259          O    103     DG     O6   3259    -0.5699         16.000000
  3260         NA    103     DG     N1   3260    -0.5053      11.994000
  3261          H    103     DG     H1   3261      0.352      3.024000
  3262         CA    103     DG     C2   3262     0.7432      12.010000
  3263         N2    103     DG     N2   3263     -0.923      9.978000
  3264          H    103     DG    H21   3264     0.4235      3.024000
  3265          H    103     DG    H22   3265     0.4235      3.024000
  3266         NC    103     DG     N3   3266    -0.6636      14.010000
  3267         CB    103     DG     C4   3267     0.1814      12.010000
  3268         C7    103     DG    C3'   3268     0.0713      9.994000
  3269         H1    103     DG    H3'   3269     0.0985      3.024000
  3270         CT    103     DG    C2'   3270    -0.0854      7.978000
  3271         HC    103     DG   H2'1   3271     0.0718      3.024000
  3272         HC    103     DG   H2'2   3272     0.0718      3.024000
  3273         OS    103     DG    O3'   3273    -0.5232         16.000000   ; qtot -102.3
; residue 104 DG  rtp DG   q -1.0
  3274          P    104     DG      P   3274     1.1659      30.970000
  3275         O2    104     DG    O1P   3275    -0.7761         16.000000
  3276         O2    104     DG    O2P   3276    -0.7761         16.000000
  3277         OS    104     DG    O5'   3277    -0.4954         16.000000
  3278         CJ    104     DG    C5'   3278    -0.0069      7.978000
  3279         H1    104     DG   H5'1   3279     0.0754      3.024000
  3280         H1    104     DG   H5'2   3280     0.0754      3.024000
  3281         CT    104     DG    C4'   3281     0.1629      9.994000
  3282         H1    104     DG    H4'   3282     0.1176      3.024000
  3283         OS    104     DG    O4'   3283    -0.3691         16.000000
  3284         CT    104     DG    C1'   3284     0.0358      9.994000
  3285         H2    104     DG    H1'   3285     0.1746      3.024000
  3286         N*    104     DG     N9   3286     0.0577      14.010000
  3287         CK    104     DG     C8   3287     0.0736      9.994000
  3288         H5    104     DG     H8   3288     0.1997      3.024000
  3289         NB    104     DG     N7   3289    -0.5725      14.010000
  3290         CB    104     DG     C5   3290     0.1991      12.010000
  3291          C    104     DG     C6   3291     0.4918      12.010000
  3292          O    104     DG     O6   3292    -0.5699         16.000000
  3293         NA    104     DG     N1   3293    -0.5053      11.994000
  3294          H    104     DG     H1   3294      0.352      3.024000
  3295         CA    104     DG     C2   3295     0.7432      12.010000
  3296         N2    104     DG     N2   3296     -0.923      9.978000
  3297          H    104     DG    H21   3297     0.4235      3.024000
  3298          H    104     DG    H22   3298     0.4235      3.024000
  3299         NC    104     DG     N3   3299    -0.6636      14.010000
  3300         CB    104     DG     C4   3300     0.1814      12.010000
  3301         C7    104     DG    C3'   3301     0.0713      9.994000
  3302         H1    104     DG    H3'   3302     0.0985      3.024000
  3303         CT    104     DG    C2'   3303    -0.0854      7.978000
  3304         HC    104     DG   H2'1   3304     0.0718      3.024000
  3305         HC    104     DG   H2'2   3305     0.0718      3.024000
  3306         OS    104     DG    O3'   3306    -0.5232         16.000000   ; qtot -103.3
; residue 105 DA  rtp DA   q -1.0
  3307          P    105     DA      P   3307     1.1659      30.970000
  3308         O2    105     DA    O1P   3308    -0.7761         16.000000
  3309         O2    105     DA    O2P   3309    -0.7761         16.000000
  3310         OS    105     DA    O5'   3310    -0.4954         16.000000
  3311         CJ    105     DA    C5'   3311    -0.0069      7.978000
  3312         H1    105     DA   H5'1   3312     0.0754      3.024000
  3313         H1    105     DA   H5'2   3313     0.0754      3.024000
  3314         CT    105     DA    C4'   3314     0.1629      9.994000
  3315         H1    105     DA    H4'   3315     0.1176      3.024000
  3316         OS    105     DA    O4'   3316    -0.3691         16.000000
  3317         CT    105     DA    C1'   3317     0.0431      9.994000
  3318         H2    105     DA    H1'   3318     0.1838      3.024000
  3319         N*    105     DA     N9   3319    -0.0268      14.010000
  3320         C2    105     DA     C8   3320     0.1607      9.994000
  3321         H5    105     DA     H8   3321     0.1877      3.024000
  3322         NB    105     DA     N7   3322    -0.6175      14.010000
  3323         CB    105     DA     C5   3323     0.0725      12.010000
  3324         CA    105     DA     C6   3324     0.6897      12.010000
  3325         N2    105     DA     N6   3325    -0.9123      9.978000
  3326          H    105     DA    H61   3326     0.4167      3.024000
  3327          H    105     DA    H62   3327     0.4167      3.024000
  3328         NC    105     DA     N1   3328    -0.7624      14.010000
  3329         CQ    105     DA     C2   3329     0.5716      9.994000
  3330         H5    105     DA     H2   3330     0.0598      3.024000
  3331         NC    105     DA     N3   3331    -0.7417      14.010000
  3332         CB    105     DA     C4   3332       0.38      12.010000
  3333         C7    105     DA    C3'   3333     0.0713      9.994000
  3334         H1    105     DA    H3'   3334     0.0985      3.024000
  3335         CT    105     DA    C2'   3335    -0.0854      7.978000
  3336         HC    105     DA   H2'1   3336     0.0718      3.024000
  3337         HC    105     DA   H2'2   3337     0.0718      3.024000
  3338         OS    105     DA    O3'   3338    -0.5232         16.000000   ; qtot -104.3
; residue 106 DG  rtp DG   q -1.0
  3339          P    106     DG      P   3339     1.1659      30.970000
  3340         O2    106     DG    O1P   3340    -0.7761         16.000000
  3341         O2    106     DG    O2P   3341    -0.7761         16.000000
  3342         OS    106     DG    O5'   3342    -0.4954         16.000000
  3343         CJ    106     DG    C5'   3343    -0.0069      7.978000
  3344         H1    106     DG   H5'1   3344     0.0754      3.024000
  3345         H1    106     DG   H5'2   3345     0.0754      3.024000
  3346         CT    106     DG    C4'   3346     0.1629      9.994000
  3347         H1    106     DG    H4'   3347     0.1176      3.024000
  3348         OS    106     DG    O4'   3348    -0.3691         16.000000
  3349         CT    106     DG    C1'   3349     0.0358      9.994000
  3350         H2    106     DG    H1'   3350     0.1746      3.024000
  3351         N*    106     DG     N9   3351     0.0577      14.010000
  3352         CK    106     DG     C8   3352     0.0736      9.994000
  3353         H5    106     DG     H8   3353     0.1997      3.024000
  3354         NB    106     DG     N7   3354    -0.5725      14.010000
  3355         CB    106     DG     C5   3355     0.1991      12.010000
  3356          C    106     DG     C6   3356     0.4918      12.010000
  3357          O    106     DG     O6   3357    -0.5699         16.000000
  3358         NA    106     DG     N1   3358    -0.5053      11.994000
  3359          H    106     DG     H1   3359      0.352      3.024000
  3360         CA    106     DG     C2   3360     0.7432      12.010000
  3361         N2    106     DG     N2   3361     -0.923      9.978000
  3362          H    106     DG    H21   3362     0.4235      3.024000
  3363          H    106     DG    H22   3363     0.4235      3.024000
  3364         NC    106     DG     N3   3364    -0.6636      14.010000
  3365         CB    106     DG     C4   3365     0.1814      12.010000
  3366         C7    106     DG    C3'   3366     0.0713      9.994000
  3367         H1    106     DG    H3'   3367     0.0985      3.024000
  3368         CT    106     DG    C2'   3368    -0.0854      7.978000
  3369         HC    106     DG   H2'1   3369     0.0718      3.024000
  3370         HC    106     DG   H2'2   3370     0.0718      3.024000
  3371         OS    106     DG    O3'   3371    -0.5232         16.000000   ; qtot -105.3
; residue 107 DC  rtp DC   q -1.0
  3372          P    107     DC      P   3372     1.1659      30.970000
  3373         O2    107     DC    O1P   3373    -0.7761         16.000000
  3374         O2    107     DC    O2P   3374    -0.7761         16.000000
  3375         OS    107     DC    O5'   3375    -0.4954         16.000000
  3376         CJ    107     DC    C5'   3376    -0.0069      7.978000
  3377         H1    107     DC   H5'1   3377     0.0754      3.024000
  3378         H1    107     DC   H5'2   3378     0.0754      3.024000
  3379         CT    107     DC    C4'   3379     0.1629      9.994000
  3380         H1    107     DC    H4'   3380     0.1176      3.024000
  3381         OS    107     DC    O4'   3381    -0.3691         16.000000
  3382         CT    107     DC    C1'   3382    -0.0116      9.994000
  3383         H2    107     DC    H1'   3383     0.1963      3.024000
  3384         N*    107     DC     N1   3384    -0.0339      14.010000
  3385         C1    107     DC     C6   3385    -0.0183      9.994000
  3386         H4    107     DC     H6   3386     0.2293      3.024000
  3387         C1    107     DC     C5   3387    -0.5222      9.994000
  3388         HA    107     DC     H5   3388     0.1863      3.024000
  3389         CA    107     DC     C4   3389     0.8439      12.010000
  3390         N2    107     DC     N4   3390    -0.9773      9.978000
  3391          H    107     DC    H41   3391     0.4314      3.024000
  3392          H    107     DC    H42   3392     0.4314      3.024000
  3393         NC    107     DC     N3   3393    -0.7748      14.010000
  3394          C    107     DC     C2   3394     0.7959      12.010000
  3395          O    107     DC     O2   3395    -0.6548         16.000000
  3396         C7    107     DC    C3'   3396     0.0713      9.994000
  3397         H1    107     DC    H3'   3397     0.0985      3.024000
  3398         CT    107     DC    C2'   3398    -0.0854      7.978000
  3399         HC    107     DC   H2'1   3399     0.0718      3.024000
  3400         HC    107     DC   H2'2   3400     0.0718      3.024000
  3401         OS    107     DC    O3'   3401    -0.5232         16.000000   ; qtot -106.3
; residue 108 DG  rtp DG   q -1.0
  3402          P    108     DG      P   3402     1.1659      30.970000
  3403         O2    108     DG    O1P   3403    -0.7761         16.000000
  3404         O2    108     DG    O2P   3404    -0.7761         16.000000
  3405         OS    108     DG    O5'   3405    -0.4954         16.000000
  3406         CJ    108     DG    C5'   3406    -0.0069      7.978000
  3407         H1    108     DG   H5'1   3407     0.0754      3.024000
  3408         H1    108     DG   H5'2   3408     0.0754      3.024000
  3409         CT    108     DG    C4'   3409     0.1629      9.994000
  3410         H1    108     DG    H4'   3410     0.1176      3.024000
  3411         OS    108     DG    O4'   3411    -0.3691         16.000000
  3412         CT    108     DG    C1'   3412     0.0358      9.994000
  3413         H2    108     DG    H1'   3413     0.1746      3.024000
  3414         N*    108     DG     N9   3414     0.0577      14.010000
  3415         CK    108     DG     C8   3415     0.0736      9.994000
  3416         H5    108     DG     H8   3416     0.1997      3.024000
  3417         NB    108     DG     N7   3417    -0.5725      14.010000
  3418         CB    108     DG     C5   3418     0.1991      12.010000
  3419          C    108     DG     C6   3419     0.4918      12.010000
  3420          O    108     DG     O6   3420    -0.5699         16.000000
  3421         NA    108     DG     N1   3421    -0.5053      11.994000
  3422          H    108     DG     H1   3422      0.352      3.024000
  3423         CA    108     DG     C2   3423     0.7432      12.010000
  3424         N2    108     DG     N2   3424     -0.923      9.978000
  3425          H    108     DG    H21   3425     0.4235      3.024000
  3426          H    108     DG    H22   3426     0.4235      3.024000
  3427         NC    108     DG     N3   3427    -0.6636      14.010000
  3428         CB    108     DG     C4   3428     0.1814      12.010000
  3429         C7    108     DG    C3'   3429     0.0713      9.994000
  3430         H1    108     DG    H3'   3430     0.0985      3.024000
  3431         CT    108     DG    C2'   3431    -0.0854      7.978000
  3432         HC    108     DG   H2'1   3432     0.0718      3.024000
  3433         HC    108     DG   H2'2   3433     0.0718      3.024000
  3434         OS    108     DG    O3'   3434    -0.5232         16.000000   ; qtot -107.3
; residue 109 DG  rtp DG   q -1.0
  3435          P    109     DG      P   3435     1.1659      30.970000
  3436         O2    109     DG    O1P   3436    -0.7761         16.000000
  3437         O2    109     DG    O2P   3437    -0.7761         16.000000
  3438         OS    109     DG    O5'   3438    -0.4954         16.000000
  3439         CJ    109     DG    C5'   3439    -0.0069      7.978000
  3440         H1    109     DG   H5'1   3440     0.0754      3.024000
  3441         H1    109     DG   H5'2   3441     0.0754      3.024000
  3442         CT    109     DG    C4'   3442     0.1629      9.994000
  3443         H1    109     DG    H4'   3443     0.1176      3.024000
  3444         OS    109     DG    O4'   3444    -0.3691         16.000000
  3445         CT    109     DG    C1'   3445     0.0358      9.994000
  3446         H2    109     DG    H1'   3446     0.1746      3.024000
  3447         N*    109     DG     N9   3447     0.0577      14.010000
  3448         CK    109     DG     C8   3448     0.0736      9.994000
  3449         H5    109     DG     H8   3449     0.1997      3.024000
  3450         NB    109     DG     N7   3450    -0.5725      14.010000
  3451         CB    109     DG     C5   3451     0.1991      12.010000
  3452          C    109     DG     C6   3452     0.4918      12.010000
  3453          O    109     DG     O6   3453    -0.5699         16.000000
  3454         NA    109     DG     N1   3454    -0.5053      11.994000
  3455          H    109     DG     H1   3455      0.352      3.024000
  3456         CA    109     DG     C2   3456     0.7432      12.010000
  3457         N2    109     DG     N2   3457     -0.923      9.978000
  3458          H    109     DG    H21   3458     0.4235      3.024000
  3459          H    109     DG    H22   3459     0.4235      3.024000
  3460         NC    109     DG     N3   3460    -0.6636      14.010000
  3461         CB    109     DG     C4   3461     0.1814      12.010000
  3462         C7    109     DG    C3'   3462     0.0713      9.994000
  3463         H1    109     DG    H3'   3463     0.0985      3.024000
  3464         CT    109     DG    C2'   3464    -0.0854      7.978000
  3465         HC    109     DG   H2'1   3465     0.0718      3.024000
  3466         HC    109     DG   H2'2   3466     0.0718      3.024000
  3467         OS    109     DG    O3'   3467    -0.5232         16.000000   ; qtot -108.3
; residue 110 DA  rtp DA   q -1.0
  3468          P    110     DA      P   3468     1.1659      30.970000
  3469         O2    110     DA    O1P   3469    -0.7761         16.000000
  3470         O2    110     DA    O2P   3470    -0.7761         16.000000
  3471         OS    110     DA    O5'   3471    -0.4954         16.000000
  3472         CJ    110     DA    C5'   3472    -0.0069      7.978000
  3473         H1    110     DA   H5'1   3473     0.0754      3.024000
  3474         H1    110     DA   H5'2   3474     0.0754      3.024000
  3475         CT    110     DA    C4'   3475     0.1629      9.994000
  3476         H1    110     DA    H4'   3476     0.1176      3.024000
  3477         OS    110     DA    O4'   3477    -0.3691         16.000000
  3478         CT    110     DA    C1'   3478     0.0431      9.994000
  3479         H2    110     DA    H1'   3479     0.1838      3.024000
  3480         N*    110     DA     N9   3480    -0.0268      14.010000
  3481         C2    110     DA     C8   3481     0.1607      9.994000
  3482         H5    110     DA     H8   3482     0.1877      3.024000
  3483         NB    110     DA     N7   3483    -0.6175      14.010000
  3484         CB    110     DA     C5   3484     0.0725      12.010000
  3485         CA    110     DA     C6   3485     0.6897      12.010000
  3486         N2    110     DA     N6   3486    -0.9123      9.978000
  3487          H    110     DA    H61   3487     0.4167      3.024000
  3488          H    110     DA    H62   3488     0.4167      3.024000
  3489         NC    110     DA     N1   3489    -0.7624      14.010000
  3490         CQ    110     DA     C2   3490     0.5716      9.994000
  3491         H5    110     DA     H2   3491     0.0598      3.024000
  3492         NC    110     DA     N3   3492    -0.7417      14.010000
  3493         CB    110     DA     C4   3493       0.38      12.010000
  3494         C7    110     DA    C3'   3494     0.0713      9.994000
  3495         H1    110     DA    H3'   3495     0.0985      3.024000
  3496         CT    110     DA    C2'   3496    -0.0854      7.978000
  3497         HC    110     DA   H2'1   3497     0.0718      3.024000
  3498         HC    110     DA   H2'2   3498     0.0718      3.024000
  3499         OS    110     DA    O3'   3499    -0.5232         16.000000   ; qtot -109.3
; residue 111 DC  rtp DC   q -1.0
  3500          P    111     DC      P   3500     1.1659      30.970000
  3501         O2    111     DC    O1P   3501    -0.7761         16.000000
  3502         O2    111     DC    O2P   3502    -0.7761         16.000000
  3503         OS    111     DC    O5'   3503    -0.4954         16.000000
  3504         CJ    111     DC    C5'   3504    -0.0069      7.978000
  3505         H1    111     DC   H5'1   3505     0.0754      3.024000
  3506         H1    111     DC   H5'2   3506     0.0754      3.024000
  3507         CT    111     DC    C4'   3507     0.1629      9.994000
  3508         H1    111     DC    H4'   3508     0.1176      3.024000
  3509         OS    111     DC    O4'   3509    -0.3691         16.000000
  3510         CT    111     DC    C1'   3510    -0.0116      9.994000
  3511         H2    111     DC    H1'   3511     0.1963      3.024000
  3512         N*    111     DC     N1   3512    -0.0339      14.010000
  3513         C1    111     DC     C6   3513    -0.0183      9.994000
  3514         H4    111     DC     H6   3514     0.2293      3.024000
  3515         C1    111     DC     C5   3515    -0.5222      9.994000
  3516         HA    111     DC     H5   3516     0.1863      3.024000
  3517         CA    111     DC     C4   3517     0.8439      12.010000
  3518         N2    111     DC     N4   3518    -0.9773      9.978000
  3519          H    111     DC    H41   3519     0.4314      3.024000
  3520          H    111     DC    H42   3520     0.4314      3.024000
  3521         NC    111     DC     N3   3521    -0.7748      14.010000
  3522          C    111     DC     C2   3522     0.7959      12.010000
  3523          O    111     DC     O2   3523    -0.6548         16.000000
  3524         C7    111     DC    C3'   3524     0.0713      9.994000
  3525         H1    111     DC    H3'   3525     0.0985      3.024000
  3526         CT    111     DC    C2'   3526    -0.0854      7.978000
  3527         HC    111     DC   H2'1   3527     0.0718      3.024000
  3528         HC    111     DC   H2'2   3528     0.0718      3.024000
  3529         OS    111     DC    O3'   3529    -0.5232         16.000000   ; qtot -110.3
; residue 112 DC  rtp DC   q -1.0
  3530          P    112     DC      P   3530     1.1659      30.970000
  3531         O2    112     DC    O1P   3531    -0.7761         16.000000
  3532         O2    112     DC    O2P   3532    -0.7761         16.000000
  3533         OS    112     DC    O5'   3533    -0.4954         16.000000
  3534         CJ    112     DC    C5'   3534    -0.0069      7.978000
  3535         H1    112     DC   H5'1   3535     0.0754      3.024000
  3536         H1    112     DC   H5'2   3536     0.0754      3.024000
  3537         CT    112     DC    C4'   3537     0.1629      9.994000
  3538         H1    112     DC    H4'   3538     0.1176      3.024000
  3539         OS    112     DC    O4'   3539    -0.3691         16.000000
  3540         CT    112     DC    C1'   3540    -0.0116      9.994000
  3541         H2    112     DC    H1'   3541     0.1963      3.024000
  3542         N*    112     DC     N1   3542    -0.0339      14.010000
  3543         C1    112     DC     C6   3543    -0.0183      9.994000
  3544         H4    112     DC     H6   3544     0.2293      3.024000
  3545         C1    112     DC     C5   3545    -0.5222      9.994000
  3546         HA    112     DC     H5   3546     0.1863      3.024000
  3547         CA    112     DC     C4   3547     0.8439      12.010000
  3548         N2    112     DC     N4   3548    -0.9773      9.978000
  3549          H    112     DC    H41   3549     0.4314      3.024000
  3550          H    112     DC    H42   3550     0.4314      3.024000
  3551         NC    112     DC     N3   3551    -0.7748      14.010000
  3552          C    112     DC     C2   3552     0.7959      12.010000
  3553          O    112     DC     O2   3553    -0.6548         16.000000
  3554         C7    112     DC    C3'   3554     0.0713      9.994000
  3555         H1    112     DC    H3'   3555     0.0985      3.024000
  3556         CT    112     DC    C2'   3556    -0.0854      7.978000
  3557         HC    112     DC   H2'1   3557     0.0718      3.024000
  3558         HC    112     DC   H2'2   3558     0.0718      3.024000
  3559         OS    112     DC    O3'   3559    -0.5232         16.000000   ; qtot -111.3
; residue 113 DA  rtp DA   q -1.0
  3560          P    113     DA      P   3560     1.1659      30.970000
  3561         O2    113     DA    O1P   3561    -0.7761         16.000000
  3562         O2    113     DA    O2P   3562    -0.7761         16.000000
  3563         OS    113     DA    O5'   3563    -0.4954         16.000000
  3564         CJ    113     DA    C5'   3564    -0.0069      7.978000
  3565         H1    113     DA   H5'1   3565     0.0754      3.024000
  3566         H1    113     DA   H5'2   3566     0.0754      3.024000
  3567         CT    113     DA    C4'   3567     0.1629      9.994000
  3568         H1    113     DA    H4'   3568     0.1176      3.024000
  3569         OS    113     DA    O4'   3569    -0.3691         16.000000
  3570         CT    113     DA    C1'   3570     0.0431      9.994000
  3571         H2    113     DA    H1'   3571     0.1838      3.024000
  3572         N*    113     DA     N9   3572    -0.0268      14.010000
  3573         C2    113     DA     C8   3573     0.1607      9.994000
  3574         H5    113     DA     H8   3574     0.1877      3.024000
  3575         NB    113     DA     N7   3575    -0.6175      14.010000
  3576         CB    113     DA     C5   3576     0.0725      12.010000
  3577         CA    113     DA     C6   3577     0.6897      12.010000
  3578         N2    113     DA     N6   3578    -0.9123      9.978000
  3579          H    113     DA    H61   3579     0.4167      3.024000
  3580          H    113     DA    H62   3580     0.4167      3.024000
  3581         NC    113     DA     N1   3581    -0.7624      14.010000
  3582         CQ    113     DA     C2   3582     0.5716      9.994000
  3583         H5    113     DA     H2   3583     0.0598      3.024000
  3584         NC    113     DA     N3   3584    -0.7417      14.010000
  3585         CB    113     DA     C4   3585       0.38      12.010000
  3586         C7    113     DA    C3'   3586     0.0713      9.994000
  3587         H1    113     DA    H3'   3587     0.0985      3.024000
  3588         CT    113     DA    C2'   3588    -0.0854      7.978000
  3589         HC    113     DA   H2'1   3589     0.0718      3.024000
  3590         HC    113     DA   H2'2   3590     0.0718      3.024000
  3591         OS    113     DA    O3'   3591    -0.5232         16.000000   ; qtot -112.3
; residue 114 DC  rtp DC   q -1.0
  3592          P    114     DC      P   3592     1.1659      30.970000
  3593         O2    114     DC    O1P   3593    -0.7761         16.000000
  3594         O2    114     DC    O2P   3594    -0.7761         16.000000
  3595         OS    114     DC    O5'   3595    -0.4954         16.000000
  3596         CJ    114     DC    C5'   3596    -0.0069      7.978000
  3597         H1    114     DC   H5'1   3597     0.0754      3.024000
  3598         H1    114     DC   H5'2   3598     0.0754      3.024000
  3599         CT    114     DC    C4'   3599     0.1629      9.994000
  3600         H1    114     DC    H4'   3600     0.1176      3.024000
  3601         OS    114     DC    O4'   3601    -0.3691         16.000000
  3602         CT    114     DC    C1'   3602    -0.0116      9.994000
  3603         H2    114     DC    H1'   3603     0.1963      3.024000
  3604         N*    114     DC     N1   3604    -0.0339      14.010000
  3605         C1    114     DC     C6   3605    -0.0183      9.994000
  3606         H4    114     DC     H6   3606     0.2293      3.024000
  3607         C1    114     DC     C5   3607    -0.5222      9.994000
  3608         HA    114     DC     H5   3608     0.1863      3.024000
  3609         CA    114     DC     C4   3609     0.8439      12.010000
  3610         N2    114     DC     N4   3610    -0.9773      9.978000
  3611          H    114     DC    H41   3611     0.4314      3.024000
  3612          H    114     DC    H42   3612     0.4314      3.024000
  3613         NC    114     DC     N3   3613    -0.7748      14.010000
  3614          C    114     DC     C2   3614     0.7959      12.010000
  3615          O    114     DC     O2   3615    -0.6548         16.000000
  3616         C7    114     DC    C3'   3616     0.0713      9.994000
  3617         H1    114     DC    H3'   3617     0.0985      3.024000
  3618         CT    114     DC    C2'   3618    -0.0854      7.978000
  3619         HC    114     DC   H2'1   3619     0.0718      3.024000
  3620         HC    114     DC   H2'2   3620     0.0718      3.024000
  3621         OS    114     DC    O3'   3621    -0.5232         16.000000   ; qtot -113.3
; residue 115 DC  rtp DC   q -1.0
  3622          P    115     DC      P   3622     1.1659      30.970000
  3623         O2    115     DC    O1P   3623    -0.7761         16.000000
  3624         O2    115     DC    O2P   3624    -0.7761         16.000000
  3625         OS    115     DC    O5'   3625    -0.4954         16.000000
  3626         CJ    115     DC    C5'   3626    -0.0069      7.978000
  3627         H1    115     DC   H5'1   3627     0.0754      3.024000
  3628         H1    115     DC   H5'2   3628     0.0754      3.024000
  3629         CT    115     DC    C4'   3629     0.1629      9.994000
  3630         H1    115     DC    H4'   3630     0.1176      3.024000
  3631         OS    115     DC    O4'   3631    -0.3691         16.000000
  3632         CT    115     DC    C1'   3632    -0.0116      9.994000
  3633         H2    115     DC    H1'   3633     0.1963      3.024000
  3634         N*    115     DC     N1   3634    -0.0339      14.010000
  3635         C1    115     DC     C6   3635    -0.0183      9.994000
  3636         H4    115     DC     H6   3636     0.2293      3.024000
  3637         C1    115     DC     C5   3637    -0.5222      9.994000
  3638         HA    115     DC     H5   3638     0.1863      3.024000
  3639         CA    115     DC     C4   3639     0.8439      12.010000
  3640         N2    115     DC     N4   3640    -0.9773      9.978000
  3641          H    115     DC    H41   3641     0.4314      3.024000
  3642          H    115     DC    H42   3642     0.4314      3.024000
  3643         NC    115     DC     N3   3643    -0.7748      14.010000
  3644          C    115     DC     C2   3644     0.7959      12.010000
  3645          O    115     DC     O2   3645    -0.6548         16.000000
  3646         C7    115     DC    C3'   3646     0.0713      9.994000
  3647         H1    115     DC    H3'   3647     0.0985      3.024000
  3648         CT    115     DC    C2'   3648    -0.0854      7.978000
  3649         HC    115     DC   H2'1   3649     0.0718      3.024000
  3650         HC    115     DC   H2'2   3650     0.0718      3.024000
  3651         OS    115     DC    O3'   3651    -0.5232         16.000000   ; qtot -114.3
; residue 116 DC  rtp DC   q -1.0
  3652          P    116     DC      P   3652     1.1659      30.970000
  3653         O2    116     DC    O1P   3653    -0.7761         16.000000
  3654         O2    116     DC    O2P   3654    -0.7761         16.000000
  3655         OS    116     DC    O5'   3655    -0.4954         16.000000
  3656         CJ    116     DC    C5'   3656    -0.0069      7.978000
  3657         H1    116     DC   H5'1   3657     0.0754      3.024000
  3658         H1    116     DC   H5'2   3658     0.0754      3.024000
  3659         CT    116     DC    C4'   3659     0.1629      9.994000
  3660         H1    116     DC    H4'   3660     0.1176      3.024000
  3661         OS    116     DC    O4'   3661    -0.3691         16.000000
  3662         CT    116     DC    C1'   3662    -0.0116      9.994000
  3663         H2    116     DC    H1'   3663     0.1963      3.024000
  3664         N*    116     DC     N1   3664    -0.0339      14.010000
  3665         C1    116     DC     C6   3665    -0.0183      9.994000
  3666         H4    116     DC     H6   3666     0.2293      3.024000
  3667         C1    116     DC     C5   3667    -0.5222      9.994000
  3668         HA    116     DC     H5   3668     0.1863      3.024000
  3669         CA    116     DC     C4   3669     0.8439      12.010000
  3670         N2    116     DC     N4   3670    -0.9773      9.978000
  3671          H    116     DC    H41   3671     0.4314      3.024000
  3672          H    116     DC    H42   3672     0.4314      3.024000
  3673         NC    116     DC     N3   3673    -0.7748      14.010000
  3674          C    116     DC     C2   3674     0.7959      12.010000
  3675          O    116     DC     O2   3675    -0.6548         16.000000
  3676         C7    116     DC    C3'   3676     0.0713      9.994000
  3677         H1    116     DC    H3'   3677     0.0985      3.024000
  3678         CT    116     DC    C2'   3678    -0.0854      7.978000
  3679         HC    116     DC   H2'1   3679     0.0718      3.024000
  3680         HC    116     DC   H2'2   3680     0.0718      3.024000
  3681         OS    116     DC    O3'   3681    -0.5232         16.000000   ; qtot -115.3
; residue 117 DC  rtp DC   q -1.0
  3682          P    117     DC      P   3682     1.1659      30.970000
  3683         O2    117     DC    O1P   3683    -0.7761         16.000000
  3684         O2    117     DC    O2P   3684    -0.7761         16.000000
  3685         OS    117     DC    O5'   3685    -0.4954         16.000000
  3686         CJ    117     DC    C5'   3686    -0.0069      7.978000
  3687         H1    117     DC   H5'1   3687     0.0754      3.024000
  3688         H1    117     DC   H5'2   3688     0.0754      3.024000
  3689         CT    117     DC    C4'   3689     0.1629      9.994000
  3690         H1    117     DC    H4'   3690     0.1176      3.024000
  3691         OS    117     DC    O4'   3691    -0.3691         16.000000
  3692         CT    117     DC    C1'   3692    -0.0116      9.994000
  3693         H2    117     DC    H1'   3693     0.1963      3.024000
  3694         N*    117     DC     N1   3694    -0.0339      14.010000
  3695         C1    117     DC     C6   3695    -0.0183      9.994000
  3696         H4    117     DC     H6   3696     0.2293      3.024000
  3697         C1    117     DC     C5   3697    -0.5222      9.994000
  3698         HA    117     DC     H5   3698     0.1863      3.024000
  3699         CA    117     DC     C4   3699     0.8439      12.010000
  3700         N2    117     DC     N4   3700    -0.9773      9.978000
  3701          H    117     DC    H41   3701     0.4314      3.024000
  3702          H    117     DC    H42   3702     0.4314      3.024000
  3703         NC    117     DC     N3   3703    -0.7748      14.010000
  3704          C    117     DC     C2   3704     0.7959      12.010000
  3705          O    117     DC     O2   3705    -0.6548         16.000000
  3706         C7    117     DC    C3'   3706     0.0713      9.994000
  3707         H1    117     DC    H3'   3707     0.0985      3.024000
  3708         CT    117     DC    C2'   3708    -0.0854      7.978000
  3709         HC    117     DC   H2'1   3709     0.0718      3.024000
  3710         HC    117     DC   H2'2   3710     0.0718      3.024000
  3711         OS    117     DC    O3'   3711    -0.5232         16.000000   ; qtot -116.3
; residue 118 DT  rtp DT   q -1.0
  3712          P    118     DT      P   3712     1.1659      30.970000
  3713         O2    118     DT    O1P   3713    -0.7761         16.000000
  3714         O2    118     DT    O2P   3714    -0.7761         16.000000
  3715         OS    118     DT    O5'   3715    -0.4954         16.000000
  3716         CJ    118     DT    C5'   3716    -0.0069      7.978000
  3717         H1    118     DT   H5'1   3717     0.0754      3.024000
  3718         H1    118     DT   H5'2   3718     0.0754      3.024000
  3719         CT    118     DT    C4'   3719     0.1629      9.994000
  3720         H1    118     DT    H4'   3720     0.1176      3.024000
  3721         OS    118     DT    O4'   3721    -0.3691         16.000000
  3722         CT    118     DT    C1'   3722      0.068      9.994000
  3723         H2    118     DT    H1'   3723     0.1804      3.024000
  3724         N*    118     DT     N1   3724    -0.0239      14.010000
  3725         CM    118     DT     C6   3725    -0.2209      9.994000
  3726         H4    118     DT     H6   3726     0.2607      3.024000
  3727         CM    118     DT     C5   3727     0.0025      12.010000
  3728         CT    118     DT     C7   3728    -0.2269      5.962000
  3729         HC    118     DT    H71   3729      0.077      3.024000
  3730         HC    118     DT    H72   3730      0.077      3.024000
  3731         HC    118     DT    H73   3731      0.077      3.024000
  3732          C    118     DT     C4   3732     0.5194      12.010000
  3733          O    118     DT     O4   3733    -0.5563         16.000000
  3734         NA    118     DT     N3   3734     -0.434      11.994000
  3735          H    118     DT     H3   3735      0.342      3.024000
  3736          C    118     DT     C2   3736     0.5677      12.010000
  3737          O    118     DT     O2   3737    -0.5881         16.000000
  3738         C7    118     DT    C3'   3738     0.0713      9.994000
  3739         H1    118     DT    H3'   3739     0.0985      3.024000
  3740         CT    118     DT    C2'   3740    -0.0854      7.978000
  3741         HC    118     DT   H2'1   3741     0.0718      3.024000
  3742         HC    118     DT   H2'2   3742     0.0718      3.024000
  3743         OS    118     DT    O3'   3743    -0.5232         16.000000   ; qtot -117.3
; residue 119 DC  rtp DC   q -1.0
  3744          P    119     DC      P   3744     1.1659      30.970000
  3745         O2    119     DC    O1P   3745    -0.7761         16.000000
  3746         O2    119     DC    O2P   3746    -0.7761         16.000000
  3747         OS    119     DC    O5'   3747    -0.4954         16.000000
  3748         CJ    119     DC    C5'   3748    -0.0069      7.978000
  3749         H1    119     DC   H5'1   3749     0.0754      3.024000
  3750         H1    119     DC   H5'2   3750     0.0754      3.024000
  3751         CT    119     DC    C4'   3751     0.1629      9.994000
  3752         H1    119     DC    H4'   3752     0.1176      3.024000
  3753         OS    119     DC    O4'   3753    -0.3691         16.000000
  3754         CT    119     DC    C1'   3754    -0.0116      9.994000
  3755         H2    119     DC    H1'   3755     0.1963      3.024000
  3756         N*    119     DC     N1   3756    -0.0339      14.010000
  3757         C1    119     DC     C6   3757    -0.0183      9.994000
  3758         H4    119     DC     H6   3758     0.2293      3.024000
  3759         C1    119     DC     C5   3759    -0.5222      9.994000
  3760         HA    119     DC     H5   3760     0.1863      3.024000
  3761         CA    119     DC     C4   3761     0.8439      12.010000
  3762         N2    119     DC     N4   3762    -0.9773      9.978000
  3763          H    119     DC    H41   3763     0.4314      3.024000
  3764          H    119     DC    H42   3764     0.4314      3.024000
  3765         NC    119     DC     N3   3765    -0.7748      14.010000
  3766          C    119     DC     C2   3766     0.7959      12.010000
  3767          O    119     DC     O2   3767    -0.6548         16.000000
  3768         C7    119     DC    C3'   3768     0.0713      9.994000
  3769         H1    119     DC    H3'   3769     0.0985      3.024000
  3770         CT    119     DC    C2'   3770    -0.0854      7.978000
  3771         HC    119     DC   H2'1   3771     0.0718      3.024000
  3772         HC    119     DC   H2'2   3772     0.0718      3.024000
  3773         OS    119     DC    O3'   3773    -0.5232         16.000000   ; qtot -118.3
; residue 120 DC  rtp DC   q -1.0
  3774          P    120     DC      P   3774     1.1659      30.970000
  3775         O2    120     DC    O1P   3775    -0.7761         16.000000
  3776         O2    120     DC    O2P   3776    -0.7761         16.000000
  3777         OS    120     DC    O5'   3777    -0.4954         16.000000
  3778         CJ    120     DC    C5'   3778    -0.0069      7.978000
  3779         H1    120     DC   H5'1   3779     0.0754      3.024000
  3780         H1    120     DC   H5'2   3780     0.0754      3.024000
  3781         CT    120     DC    C4'   3781     0.1629      9.994000
  3782         H1    120     DC    H4'   3782     0.1176      3.024000
  3783         OS    120     DC    O4'   3783    -0.3691         16.000000
  3784         CT    120     DC    C1'   3784    -0.0116      9.994000
  3785         H2    120     DC    H1'   3785     0.1963      3.024000
  3786         N*    120     DC     N1   3786    -0.0339      14.010000
  3787         C1    120     DC     C6   3787    -0.0183      9.994000
  3788         H4    120     DC     H6   3788     0.2293      3.024000
  3789         C1    120     DC     C5   3789    -0.5222      9.994000
  3790         HA    120     DC     H5   3790     0.1863      3.024000
  3791         CA    120     DC     C4   3791     0.8439      12.010000
  3792         N2    120     DC     N4   3792    -0.9773      9.978000
  3793          H    120     DC    H41   3793     0.4314      3.024000
  3794          H    120     DC    H42   3794     0.4314      3.024000
  3795         NC    120     DC     N3   3795    -0.7748      14.010000
  3796          C    120     DC     C2   3796     0.7959      12.010000
  3797          O    120     DC     O2   3797    -0.6548         16.000000
  3798         C7    120     DC    C3'   3798     0.0713      9.994000
  3799         H1    120     DC    H3'   3799     0.0985      3.024000
  3800         CT    120     DC    C2'   3800    -0.0854      7.978000
  3801         HC    120     DC   H2'1   3801     0.0718      3.024000
  3802         HC    120     DC   H2'2   3802     0.0718      3.024000
  3803         OS    120     DC    O3'   3803    -0.5232         16.000000   ; qtot -119.3
; residue 121 DT  rtp DT   q -1.0
  3804          P    121     DT      P   3804     1.1659      30.970000
  3805         O2    121     DT    O1P   3805    -0.7761         16.000000
  3806         O2    121     DT    O2P   3806    -0.7761         16.000000
  3807         OS    121     DT    O5'   3807    -0.4954         16.000000
  3808         CJ    121     DT    C5'   3808    -0.0069      7.978000
  3809         H1    121     DT   H5'1   3809     0.0754      3.024000
  3810         H1    121     DT   H5'2   3810     0.0754      3.024000
  3811         CT    121     DT    C4'   3811     0.1629      9.994000
  3812         H1    121     DT    H4'   3812     0.1176      3.024000
  3813         OS    121     DT    O4'   3813    -0.3691         16.000000
  3814         CT    121     DT    C1'   3814      0.068      9.994000
  3815         H2    121     DT    H1'   3815     0.1804      3.024000
  3816         N*    121     DT     N1   3816    -0.0239      14.010000
  3817         CM    121     DT     C6   3817    -0.2209      9.994000
  3818         H4    121     DT     H6   3818     0.2607      3.024000
  3819         CM    121     DT     C5   3819     0.0025      12.010000
  3820         CT    121     DT     C7   3820    -0.2269      5.962000
  3821         HC    121     DT    H71   3821      0.077      3.024000
  3822         HC    121     DT    H72   3822      0.077      3.024000
  3823         HC    121     DT    H73   3823      0.077      3.024000
  3824          C    121     DT     C4   3824     0.5194      12.010000
  3825          O    121     DT     O4   3825    -0.5563         16.000000
  3826         NA    121     DT     N3   3826     -0.434      11.994000
  3827          H    121     DT     H3   3827      0.342      3.024000
  3828          C    121     DT     C2   3828     0.5677      12.010000
  3829          O    121     DT     O2   3829    -0.5881         16.000000
  3830         C7    121     DT    C3'   3830     0.0713      9.994000
  3831         H1    121     DT    H3'   3831     0.0985      3.024000
  3832         CT    121     DT    C2'   3832    -0.0854      7.978000
  3833         HC    121     DT   H2'1   3833     0.0718      3.024000
  3834         HC    121     DT   H2'2   3834     0.0718      3.024000
  3835         OS    121     DT    O3'   3835    -0.5232         16.000000   ; qtot -120.3
; residue 122 DG  rtp DG   q -1.0
  3836          P    122     DG      P   3836     1.1659      30.970000
  3837         O2    122     DG    O1P   3837    -0.7761         16.000000
  3838         O2    122     DG    O2P   3838    -0.7761         16.000000
  3839         OS    122     DG    O5'   3839    -0.4954         16.000000
  3840         CJ    122     DG    C5'   3840    -0.0069      7.978000
  3841         H1    122     DG   H5'1   3841     0.0754      3.024000
  3842         H1    122     DG   H5'2   3842     0.0754      3.024000
  3843         CT    122     DG    C4'   3843     0.1629      9.994000
  3844         H1    122     DG    H4'   3844     0.1176      3.024000
  3845         OS    122     DG    O4'   3845    -0.3691         16.000000
  3846         CT    122     DG    C1'   3846     0.0358      9.994000
  3847         H2    122     DG    H1'   3847     0.1746      3.024000
  3848         N*    122     DG     N9   3848     0.0577      14.010000
  3849         CK    122     DG     C8   3849     0.0736      9.994000
  3850         H5    122     DG     H8   3850     0.1997      3.024000
  3851         NB    122     DG     N7   3851    -0.5725      14.010000
  3852         CB    122     DG     C5   3852     0.1991      12.010000
  3853          C    122     DG     C6   3853     0.4918      12.010000
  3854          O    122     DG     O6   3854    -0.5699         16.000000
  3855         NA    122     DG     N1   3855    -0.5053      11.994000
  3856          H    122     DG     H1   3856      0.352      3.024000
  3857         CA    122     DG     C2   3857     0.7432      12.010000
  3858         N2    122     DG     N2   3858     -0.923      9.978000
  3859          H    122     DG    H21   3859     0.4235      3.024000
  3860          H    122     DG    H22   3860     0.4235      3.024000
  3861         NC    122     DG     N3   3861    -0.6636      14.010000
  3862         CB    122     DG     C4   3862     0.1814      12.010000
  3863         C7    122     DG    C3'   3863     0.0713      9.994000
  3864         H1    122     DG    H3'   3864     0.0985      3.024000
  3865         CT    122     DG    C2'   3865    -0.0854      7.978000
  3866         HC    122     DG   H2'1   3866     0.0718      3.024000
  3867         HC    122     DG   H2'2   3867     0.0718      3.024000
  3868         OS    122     DG    O3'   3868    -0.5232         16.000000   ; qtot -121.3
; residue 123 DG  rtp DG   q -1.0
  3869          P    123     DG      P   3869     1.1659      30.970000
  3870         O2    123     DG    O1P   3870    -0.7761         16.000000
  3871         O2    123     DG    O2P   3871    -0.7761         16.000000
  3872         OS    123     DG    O5'   3872    -0.4954         16.000000
  3873         CJ    123     DG    C5'   3873    -0.0069      7.978000
  3874         H1    123     DG   H5'1   3874     0.0754      3.024000
  3875         H1    123     DG   H5'2   3875     0.0754      3.024000
  3876         CT    123     DG    C4'   3876     0.1629      9.994000
  3877         H1    123     DG    H4'   3877     0.1176      3.024000
  3878         OS    123     DG    O4'   3878    -0.3691         16.000000
  3879         CT    123     DG    C1'   3879     0.0358      9.994000
  3880         H2    123     DG    H1'   3880     0.1746      3.024000
  3881         N*    123     DG     N9   3881     0.0577      14.010000
  3882         CK    123     DG     C8   3882     0.0736      9.994000
  3883         H5    123     DG     H8   3883     0.1997      3.024000
  3884         NB    123     DG     N7   3884    -0.5725      14.010000
  3885         CB    123     DG     C5   3885     0.1991      12.010000
  3886          C    123     DG     C6   3886     0.4918      12.010000
  3887          O    123     DG     O6   3887    -0.5699         16.000000
  3888         NA    123     DG     N1   3888    -0.5053      11.994000
  3889          H    123     DG     H1   3889      0.352      3.024000
  3890         CA    123     DG     C2   3890     0.7432      12.010000
  3891         N2    123     DG     N2   3891     -0.923      9.978000
  3892          H    123     DG    H21   3892     0.4235      3.024000
  3893          H    123     DG    H22   3893     0.4235      3.024000
  3894         NC    123     DG     N3   3894    -0.6636      14.010000
  3895         CB    123     DG     C4   3895     0.1814      12.010000
  3896         C7    123     DG    C3'   3896     0.0713      9.994000
  3897         H1    123     DG    H3'   3897     0.0985      3.024000
  3898         CT    123     DG    C2'   3898    -0.0854      7.978000
  3899         HC    123     DG   H2'1   3899     0.0718      3.024000
  3900         HC    123     DG   H2'2   3900     0.0718      3.024000
  3901         OS    123     DG    O3'   3901    -0.5232         16.000000   ; qtot -122.3
; residue 124 DG  rtp DG   q -1.0
  3902          P    124     DG      P   3902     1.1659      30.970000
  3903         O2    124     DG    O1P   3903    -0.7761         16.000000
  3904         O2    124     DG    O2P   3904    -0.7761         16.000000
  3905         OS    124     DG    O5'   3905    -0.4954         16.000000
  3906         CJ    124     DG    C5'   3906    -0.0069      7.978000
  3907         H1    124     DG   H5'1   3907     0.0754      3.024000
  3908         H1    124     DG   H5'2   3908     0.0754      3.024000
  3909         CT    124     DG    C4'   3909     0.1629      9.994000
  3910         H1    124     DG    H4'   3910     0.1176      3.024000
  3911         OS    124     DG    O4'   3911    -0.3691         16.000000
  3912         CT    124     DG    C1'   3912     0.0358      9.994000
  3913         H2    124     DG    H1'   3913     0.1746      3.024000
  3914         N*    124     DG     N9   3914     0.0577      14.010000
  3915         CK    124     DG     C8   3915     0.0736      9.994000
  3916         H5    124     DG     H8   3916     0.1997      3.024000
  3917         NB    124     DG     N7   3917    -0.5725      14.010000
  3918         CB    124     DG     C5   3918     0.1991      12.010000
  3919          C    124     DG     C6   3919     0.4918      12.010000
  3920          O    124     DG     O6   3920    -0.5699         16.000000
  3921         NA    124     DG     N1   3921    -0.5053      11.994000
  3922          H    124     DG     H1   3922      0.352      3.024000
  3923         CA    124     DG     C2   3923     0.7432      12.010000
  3924         N2    124     DG     N2   3924     -0.923      9.978000
  3925          H    124     DG    H21   3925     0.4235      3.024000
  3926          H    124     DG    H22   3926     0.4235      3.024000
  3927         NC    124     DG     N3   3927    -0.6636      14.010000
  3928         CB    124     DG     C4   3928     0.1814      12.010000
  3929         C7    124     DG    C3'   3929     0.0713      9.994000
  3930         H1    124     DG    H3'   3930     0.0985      3.024000
  3931         CT    124     DG    C2'   3931    -0.0854      7.978000
  3932         HC    124     DG   H2'1   3932     0.0718      3.024000
  3933         HC    124     DG   H2'2   3933     0.0718      3.024000
  3934         OS    124     DG    O3'   3934    -0.5232         16.000000   ; qtot -123.3
; residue 125 DC  rtp DC   q -1.0
  3935          P    125     DC      P   3935     1.1659      30.970000
  3936         O2    125     DC    O1P   3936    -0.7761         16.000000
  3937         O2    125     DC    O2P   3937    -0.7761         16.000000
  3938         OS    125     DC    O5'   3938    -0.4954         16.000000
  3939         CJ    125     DC    C5'   3939    -0.0069      7.978000
  3940         H1    125     DC   H5'1   3940     0.0754      3.024000
  3941         H1    125     DC   H5'2   3941     0.0754      3.024000
  3942         CT    125     DC    C4'   3942     0.1629      9.994000
  3943         H1    125     DC    H4'   3943     0.1176      3.024000
  3944         OS    125     DC    O4'   3944    -0.3691         16.000000
  3945         CT    125     DC    C1'   3945    -0.0116      9.994000
  3946         H2    125     DC    H1'   3946     0.1963      3.024000
  3947         N*    125     DC     N1   3947    -0.0339      14.010000
  3948         C1    125     DC     C6   3948    -0.0183      9.994000
  3949         H4    125     DC     H6   3949     0.2293      3.024000
  3950         C1    125     DC     C5   3950    -0.5222      9.994000
  3951         HA    125     DC     H5   3951     0.1863      3.024000
  3952         CA    125     DC     C4   3952     0.8439      12.010000
  3953         N2    125     DC     N4   3953    -0.9773      9.978000
  3954          H    125     DC    H41   3954     0.4314      3.024000
  3955          H    125     DC    H42   3955     0.4314      3.024000
  3956         NC    125     DC     N3   3956    -0.7748      14.010000
  3957          C    125     DC     C2   3957     0.7959      12.010000
  3958          O    125     DC     O2   3958    -0.6548         16.000000
  3959         C7    125     DC    C3'   3959     0.0713      9.994000
  3960         H1    125     DC    H3'   3960     0.0985      3.024000
  3961         CT    125     DC    C2'   3961    -0.0854      7.978000
  3962         HC    125     DC   H2'1   3962     0.0718      3.024000
  3963         HC    125     DC   H2'2   3963     0.0718      3.024000
  3964         OS    125     DC    O3'   3964    -0.5232         16.000000   ; qtot -124.3
; residue 126 DC  rtp DC   q -1.0
  3965          P    126     DC      P   3965     1.1659      30.970000
  3966         O2    126     DC    O1P   3966    -0.7761         16.000000
  3967         O2    126     DC    O2P   3967    -0.7761         16.000000
  3968         OS    126     DC    O5'   3968    -0.4954         16.000000
  3969         CJ    126     DC    C5'   3969    -0.0069      7.978000
  3970         H1    126     DC   H5'1   3970     0.0754      3.024000
  3971         H1    126     DC   H5'2   3971     0.0754      3.024000
  3972         CT    126     DC    C4'   3972     0.1629      9.994000
  3973         H1    126     DC    H4'   3973     0.1176      3.024000
  3974         OS    126     DC    O4'   3974    -0.3691         16.000000
  3975         CT    126     DC    C1'   3975    -0.0116      9.994000
  3976         H2    126     DC    H1'   3976     0.1963      3.024000
  3977         N*    126     DC     N1   3977    -0.0339      14.010000
  3978         C1    126     DC     C6   3978    -0.0183      9.994000
  3979         H4    126     DC     H6   3979     0.2293      3.024000
  3980         C1    126     DC     C5   3980    -0.5222      9.994000
  3981         HA    126     DC     H5   3981     0.1863      3.024000
  3982         CA    126     DC     C4   3982     0.8439      12.010000
  3983         N2    126     DC     N4   3983    -0.9773      9.978000
  3984          H    126     DC    H41   3984     0.4314      3.024000
  3985          H    126     DC    H42   3985     0.4314      3.024000
  3986         NC    126     DC     N3   3986    -0.7748      14.010000
  3987          C    126     DC     C2   3987     0.7959      12.010000
  3988          O    126     DC     O2   3988    -0.6548         16.000000
  3989         C7    126     DC    C3'   3989     0.0713      9.994000
  3990         H1    126     DC    H3'   3990     0.0985      3.024000
  3991         CT    126     DC    C2'   3991    -0.0854      7.978000
  3992         HC    126     DC   H2'1   3992     0.0718      3.024000
  3993         HC    126     DC   H2'2   3993     0.0718      3.024000
  3994         OS    126     DC    O3'   3994    -0.5232         16.000000   ; qtot -125.3
; residue 127 DC  rtp DC   q -1.0
  3995          P    127     DC      P   3995     1.1659      30.970000
  3996         O2    127     DC    O1P   3996    -0.7761         16.000000
  3997         O2    127     DC    O2P   3997    -0.7761         16.000000
  3998         OS    127     DC    O5'   3998    -0.4954         16.000000
  3999         CJ    127     DC    C5'   3999    -0.0069      7.978000
  4000         H1    127     DC   H5'1   4000     0.0754      3.024000
  4001         H1    127     DC   H5'2   4001     0.0754      3.024000
  4002         CT    127     DC    C4'   4002     0.1629      9.994000
  4003         H1    127     DC    H4'   4003     0.1176      3.024000
  4004         OS    127     DC    O4'   4004    -0.3691         16.000000
  4005         CT    127     DC    C1'   4005    -0.0116      9.994000
  4006         H2    127     DC    H1'   4006     0.1963      3.024000
  4007         N*    127     DC     N1   4007    -0.0339      14.010000
  4008         C1    127     DC     C6   4008    -0.0183      9.994000
  4009         H4    127     DC     H6   4009     0.2293      3.024000
  4010         C1    127     DC     C5   4010    -0.5222      9.994000
  4011         HA    127     DC     H5   4011     0.1863      3.024000
  4012         CA    127     DC     C4   4012     0.8439      12.010000
  4013         N2    127     DC     N4   4013    -0.9773      9.978000
  4014          H    127     DC    H41   4014     0.4314      3.024000
  4015          H    127     DC    H42   4015     0.4314      3.024000
  4016         NC    127     DC     N3   4016    -0.7748      14.010000
  4017          C    127     DC     C2   4017     0.7959      12.010000
  4018          O    127     DC     O2   4018    -0.6548         16.000000
  4019         C7    127     DC    C3'   4019     0.0713      9.994000
  4020         H1    127     DC    H3'   4020     0.0985      3.024000
  4021         CT    127     DC    C2'   4021    -0.0854      7.978000
  4022         HC    127     DC   H2'1   4022     0.0718      3.024000
  4023         HC    127     DC   H2'2   4023     0.0718      3.024000
  4024         OS    127     DC    O3'   4024    -0.5232         16.000000   ; qtot -126.3
; residue 128 DC  rtp DC   q -1.0
  4025          P    128     DC      P   4025     1.1659      30.970000
  4026         O2    128     DC    O1P   4026    -0.7761         16.000000
  4027         O2    128     DC    O2P   4027    -0.7761         16.000000
  4028         OS    128     DC    O5'   4028    -0.4954         16.000000
  4029         CJ    128     DC    C5'   4029    -0.0069      7.978000
  4030         H1    128     DC   H5'1   4030     0.0754      3.024000
  4031         H1    128     DC   H5'2   4031     0.0754      3.024000
  4032         CT    128     DC    C4'   4032     0.1629      9.994000
  4033         H1    128     DC    H4'   4033     0.1176      3.024000
  4034         OS    128     DC    O4'   4034    -0.3691         16.000000
  4035         CT    128     DC    C1'   4035    -0.0116      9.994000
  4036         H2    128     DC    H1'   4036     0.1963      3.024000
  4037         N*    128     DC     N1   4037    -0.0339      14.010000
  4038         C1    128     DC     C6   4038    -0.0183      9.994000
  4039         H4    128     DC     H6   4039     0.2293      3.024000
  4040         C1    128     DC     C5   4040    -0.5222      9.994000
  4041         HA    128     DC     H5   4041     0.1863      3.024000
  4042         CA    128     DC     C4   4042     0.8439      12.010000
  4043         N2    128     DC     N4   4043    -0.9773      9.978000
  4044          H    128     DC    H41   4044     0.4314      3.024000
  4045          H    128     DC    H42   4045     0.4314      3.024000
  4046         NC    128     DC     N3   4046    -0.7748      14.010000
  4047          C    128     DC     C2   4047     0.7959      12.010000
  4048          O    128     DC     O2   4048    -0.6548         16.000000
  4049         C7    128     DC    C3'   4049     0.0713      9.994000
  4050         H1    128     DC    H3'   4050     0.0985      3.024000
  4051         CT    128     DC    C2'   4051    -0.0854      7.978000
  4052         HC    128     DC   H2'1   4052     0.0718      3.024000
  4053         HC    128     DC   H2'2   4053     0.0718      3.024000
  4054         OS    128     DC    O3'   4054    -0.5232         16.000000   ; qtot -127.3
; residue 129 DT  rtp DT   q -1.0
  4055          P    129     DT      P   4055     1.1659      30.970000
  4056         O2    129     DT    O1P   4056    -0.7761         16.000000
  4057         O2    129     DT    O2P   4057    -0.7761         16.000000
  4058         OS    129     DT    O5'   4058    -0.4954         16.000000
  4059         CJ    129     DT    C5'   4059    -0.0069      7.978000
  4060         H1    129     DT   H5'1   4060     0.0754      3.024000
  4061         H1    129     DT   H5'2   4061     0.0754      3.024000
  4062         CT    129     DT    C4'   4062     0.1629      9.994000
  4063         H1    129     DT    H4'   4063     0.1176      3.024000
  4064         OS    129     DT    O4'   4064    -0.3691         16.000000
  4065         CT    129     DT    C1'   4065      0.068      9.994000
  4066         H2    129     DT    H1'   4066     0.1804      3.024000
  4067         N*    129     DT     N1   4067    -0.0239      14.010000
  4068         CM    129     DT     C6   4068    -0.2209      9.994000
  4069         H4    129     DT     H6   4069     0.2607      3.024000
  4070         CM    129     DT     C5   4070     0.0025      12.010000
  4071         CT    129     DT     C7   4071    -0.2269      5.962000
  4072         HC    129     DT    H71   4072      0.077      3.024000
  4073         HC    129     DT    H72   4073      0.077      3.024000
  4074         HC    129     DT    H73   4074      0.077      3.024000
  4075          C    129     DT     C4   4075     0.5194      12.010000
  4076          O    129     DT     O4   4076    -0.5563         16.000000
  4077         NA    129     DT     N3   4077     -0.434      11.994000
  4078          H    129     DT     H3   4078      0.342      3.024000
  4079          C    129     DT     C2   4079     0.5677      12.010000
  4080          O    129     DT     O2   4080    -0.5881         16.000000
  4081         C7    129     DT    C3'   4081     0.0713      9.994000
  4082         H1    129     DT    H3'   4082     0.0985      3.024000
  4083         CT    129     DT    C2'   4083    -0.0854      7.978000
  4084         HC    129     DT   H2'1   4084     0.0718      3.024000
  4085         HC    129     DT   H2'2   4085     0.0718      3.024000
  4086         OS    129     DT    O3'   4086    -0.5232         16.000000   ; qtot -128.3
; residue 130 DG  rtp DG   q -1.0
  4087          P    130     DG      P   4087     1.1659      30.970000
  4088         O2    130     DG    O1P   4088    -0.7761         16.000000
  4089         O2    130     DG    O2P   4089    -0.7761         16.000000
  4090         OS    130     DG    O5'   4090    -0.4954         16.000000
  4091         CJ    130     DG    C5'   4091    -0.0069      7.978000
  4092         H1    130     DG   H5'1   4092     0.0754      3.024000
  4093         H1    130     DG   H5'2   4093     0.0754      3.024000
  4094         CT    130     DG    C4'   4094     0.1629      9.994000
  4095         H1    130     DG    H4'   4095     0.1176      3.024000
  4096         OS    130     DG    O4'   4096    -0.3691         16.000000
  4097         CT    130     DG    C1'   4097     0.0358      9.994000
  4098         H2    130     DG    H1'   4098     0.1746      3.024000
  4099         N*    130     DG     N9   4099     0.0577      14.010000
  4100         CK    130     DG     C8   4100     0.0736      9.994000
  4101         H5    130     DG     H8   4101     0.1997      3.024000
  4102         NB    130     DG     N7   4102    -0.5725      14.010000
  4103         CB    130     DG     C5   4103     0.1991      12.010000
  4104          C    130     DG     C6   4104     0.4918      12.010000
  4105          O    130     DG     O6   4105    -0.5699         16.000000
  4106         NA    130     DG     N1   4106    -0.5053      11.994000
  4107          H    130     DG     H1   4107      0.352      3.024000
  4108         CA    130     DG     C2   4108     0.7432      12.010000
  4109         N2    130     DG     N2   4109     -0.923      9.978000
  4110          H    130     DG    H21   4110     0.4235      3.024000
  4111          H    130     DG    H22   4111     0.4235      3.024000
  4112         NC    130     DG     N3   4112    -0.6636      14.010000
  4113         CB    130     DG     C4   4113     0.1814      12.010000
  4114         C7    130     DG    C3'   4114     0.0713      9.994000
  4115         H1    130     DG    H3'   4115     0.0985      3.024000
  4116         CT    130     DG    C2'   4116    -0.0854      7.978000
  4117         HC    130     DG   H2'1   4117     0.0718      3.024000
  4118         HC    130     DG   H2'2   4118     0.0718      3.024000
  4119         OS    130     DG    O3'   4119    -0.5232         16.000000   ; qtot -129.3
; residue 131 DC  rtp DC   q -1.0
  4120          P    131     DC      P   4120     1.1659      30.970000
  4121         O2    131     DC    O1P   4121    -0.7761         16.000000
  4122         O2    131     DC    O2P   4122    -0.7761         16.000000
  4123         OS    131     DC    O5'   4123    -0.4954         16.000000
  4124         CJ    131     DC    C5'   4124    -0.0069      7.978000
  4125         H1    131     DC   H5'1   4125     0.0754      3.024000
  4126         H1    131     DC   H5'2   4126     0.0754      3.024000
  4127         CT    131     DC    C4'   4127     0.1629      9.994000
  4128         H1    131     DC    H4'   4128     0.1176      3.024000
  4129         OS    131     DC    O4'   4129    -0.3691         16.000000
  4130         CT    131     DC    C1'   4130    -0.0116      9.994000
  4131         H2    131     DC    H1'   4131     0.1963      3.024000
  4132         N*    131     DC     N1   4132    -0.0339      14.010000
  4133         C1    131     DC     C6   4133    -0.0183      9.994000
  4134         H4    131     DC     H6   4134     0.2293      3.024000
  4135         C1    131     DC     C5   4135    -0.5222      9.994000
  4136         HA    131     DC     H5   4136     0.1863      3.024000
  4137         CA    131     DC     C4   4137     0.8439      12.010000
  4138         N2    131     DC     N4   4138    -0.9773      9.978000
  4139          H    131     DC    H41   4139     0.4314      3.024000
  4140          H    131     DC    H42   4140     0.4314      3.024000
  4141         NC    131     DC     N3   4141    -0.7748      14.010000
  4142          C    131     DC     C2   4142     0.7959      12.010000
  4143          O    131     DC     O2   4143    -0.6548         16.000000
  4144         C7    131     DC    C3'   4144     0.0713      9.994000
  4145         H1    131     DC    H3'   4145     0.0985      3.024000
  4146         CT    131     DC    C2'   4146    -0.0854      7.978000
  4147         HC    131     DC   H2'1   4147     0.0718      3.024000
  4148         HC    131     DC   H2'2   4148     0.0718      3.024000
  4149         OS    131     DC    O3'   4149    -0.5232         16.000000   ; qtot -130.3
; residue 132 DC  rtp DC   q -1.0
  4150          P    132     DC      P   4150     1.1659      30.970000
  4151         O2    132     DC    O1P   4151    -0.7761         16.000000
  4152         O2    132     DC    O2P   4152    -0.7761         16.000000
  4153         OS    132     DC    O5'   4153    -0.4954         16.000000
  4154         CJ    132     DC    C5'   4154    -0.0069      7.978000
  4155         H1    132     DC   H5'1   4155     0.0754      3.024000
  4156         H1    132     DC   H5'2   4156     0.0754      3.024000
  4157         CT    132     DC    C4'   4157     0.1629      9.994000
  4158         H1    132     DC    H4'   4158     0.1176      3.024000
  4159         OS    132     DC    O4'   4159    -0.3691         16.000000
  4160         CT    132     DC    C1'   4160    -0.0116      9.994000
  4161         H2    132     DC    H1'   4161     0.1963      3.024000
  4162         N*    132     DC     N1   4162    -0.0339      14.010000
  4163         C1    132     DC     C6   4163    -0.0183      9.994000
  4164         H4    132     DC     H6   4164     0.2293      3.024000
  4165         C1    132     DC     C5   4165    -0.5222      9.994000
  4166         HA    132     DC     H5   4166     0.1863      3.024000
  4167         CA    132     DC     C4   4167     0.8439      12.010000
  4168         N2    132     DC     N4   4168    -0.9773      9.978000
  4169          H    132     DC    H41   4169     0.4314      3.024000
  4170          H    132     DC    H42   4170     0.4314      3.024000
  4171         NC    132     DC     N3   4171    -0.7748      14.010000
  4172          C    132     DC     C2   4172     0.7959      12.010000
  4173          O    132     DC     O2   4173    -0.6548         16.000000
  4174         C7    132     DC    C3'   4174     0.0713      9.994000
  4175         H1    132     DC    H3'   4175     0.0985      3.024000
  4176         CT    132     DC    C2'   4176    -0.0854      7.978000
  4177         HC    132     DC   H2'1   4177     0.0718      3.024000
  4178         HC    132     DC   H2'2   4178     0.0718      3.024000
  4179         OS    132     DC    O3'   4179    -0.5232         16.000000   ; qtot -131.3
; residue 133 DC  rtp DC   q -1.0
  4180          P    133     DC      P   4180     1.1659      30.970000
  4181         O2    133     DC    O1P   4181    -0.7761         16.000000
  4182         O2    133     DC    O2P   4182    -0.7761         16.000000
  4183         OS    133     DC    O5'   4183    -0.4954         16.000000
  4184         CJ    133     DC    C5'   4184    -0.0069      7.978000
  4185         H1    133     DC   H5'1   4185     0.0754      3.024000
  4186         H1    133     DC   H5'2   4186     0.0754      3.024000
  4187         CT    133     DC    C4'   4187     0.1629      9.994000
  4188         H1    133     DC    H4'   4188     0.1176      3.024000
  4189         OS    133     DC    O4'   4189    -0.3691         16.000000
  4190         CT    133     DC    C1'   4190    -0.0116      9.994000
  4191         H2    133     DC    H1'   4191     0.1963      3.024000
  4192         N*    133     DC     N1   4192    -0.0339      14.010000
  4193         C1    133     DC     C6   4193    -0.0183      9.994000
  4194         H4    133     DC     H6   4194     0.2293      3.024000
  4195         C1    133     DC     C5   4195    -0.5222      9.994000
  4196         HA    133     DC     H5   4196     0.1863      3.024000
  4197         CA    133     DC     C4   4197     0.8439      12.010000
  4198         N2    133     DC     N4   4198    -0.9773      9.978000
  4199          H    133     DC    H41   4199     0.4314      3.024000
  4200          H    133     DC    H42   4200     0.4314      3.024000
  4201         NC    133     DC     N3   4201    -0.7748      14.010000
  4202          C    133     DC     C2   4202     0.7959      12.010000
  4203          O    133     DC     O2   4203    -0.6548         16.000000
  4204         C7    133     DC    C3'   4204     0.0713      9.994000
  4205         H1    133     DC    H3'   4205     0.0985      3.024000
  4206         CT    133     DC    C2'   4206    -0.0854      7.978000
  4207         HC    133     DC   H2'1   4207     0.0718      3.024000
  4208         HC    133     DC   H2'2   4208     0.0718      3.024000
  4209         OS    133     DC    O3'   4209    -0.5232         16.000000   ; qtot -132.3
; residue 134 DG  rtp DG   q -1.0
  4210          P    134     DG      P   4210     1.1659      30.970000
  4211         O2    134     DG    O1P   4211    -0.7761         16.000000
  4212         O2    134     DG    O2P   4212    -0.7761         16.000000
  4213         OS    134     DG    O5'   4213    -0.4954         16.000000
  4214         CJ    134     DG    C5'   4214    -0.0069      7.978000
  4215         H1    134     DG   H5'1   4215     0.0754      3.024000
  4216         H1    134     DG   H5'2   4216     0.0754      3.024000
  4217         CT    134     DG    C4'   4217     0.1629      9.994000
  4218         H1    134     DG    H4'   4218     0.1176      3.024000
  4219         OS    134     DG    O4'   4219    -0.3691         16.000000
  4220         CT    134     DG    C1'   4220     0.0358      9.994000
  4221         H2    134     DG    H1'   4221     0.1746      3.024000
  4222         N*    134     DG     N9   4222     0.0577      14.010000
  4223         CK    134     DG     C8   4223     0.0736      9.994000
  4224         H5    134     DG     H8   4224     0.1997      3.024000
  4225         NB    134     DG     N7   4225    -0.5725      14.010000
  4226         CB    134     DG     C5   4226     0.1991      12.010000
  4227          C    134     DG     C6   4227     0.4918      12.010000
  4228          O    134     DG     O6   4228    -0.5699         16.000000
  4229         NA    134     DG     N1   4229    -0.5053      11.994000
  4230          H    134     DG     H1   4230      0.352      3.024000
  4231         CA    134     DG     C2   4231     0.7432      12.010000
  4232         N2    134     DG     N2   4232     -0.923      9.978000
  4233          H    134     DG    H21   4233     0.4235      3.024000
  4234          H    134     DG    H22   4234     0.4235      3.024000
  4235         NC    134     DG     N3   4235    -0.6636      14.010000
  4236         CB    134     DG     C4   4236     0.1814      12.010000
  4237         C7    134     DG    C3'   4237     0.0713      9.994000
  4238         H1    134     DG    H3'   4238     0.0985      3.024000
  4239         CT    134     DG    C2'   4239    -0.0854      7.978000
  4240         HC    134     DG   H2'1   4240     0.0718      3.024000
  4241         HC    134     DG   H2'2   4241     0.0718      3.024000
  4242         OS    134     DG    O3'   4242    -0.5232         16.000000   ; qtot -133.3
; residue 135 DG  rtp DG   q -1.0
  4243          P    135     DG      P   4243     1.1659      30.970000
  4244         O2    135     DG    O1P   4244    -0.7761         16.000000
  4245         O2    135     DG    O2P   4245    -0.7761         16.000000
  4246         OS    135     DG    O5'   4246    -0.4954         16.000000
  4247         CJ    135     DG    C5'   4247    -0.0069      7.978000
  4248         H1    135     DG   H5'1   4248     0.0754      3.024000
  4249         H1    135     DG   H5'2   4249     0.0754      3.024000
  4250         CT    135     DG    C4'   4250     0.1629      9.994000
  4251         H1    135     DG    H4'   4251     0.1176      3.024000
  4252         OS    135     DG    O4'   4252    -0.3691         16.000000
  4253         CT    135     DG    C1'   4253     0.0358      9.994000
  4254         H2    135     DG    H1'   4254     0.1746      3.024000
  4255         N*    135     DG     N9   4255     0.0577      14.010000
  4256         CK    135     DG     C8   4256     0.0736      9.994000
  4257         H5    135     DG     H8   4257     0.1997      3.024000
  4258         NB    135     DG     N7   4258    -0.5725      14.010000
  4259         CB    135     DG     C5   4259     0.1991      12.010000
  4260          C    135     DG     C6   4260     0.4918      12.010000
  4261          O    135     DG     O6   4261    -0.5699         16.000000
  4262         NA    135     DG     N1   4262    -0.5053      11.994000
  4263          H    135     DG     H1   4263      0.352      3.024000
  4264         CA    135     DG     C2   4264     0.7432      12.010000
  4265         N2    135     DG     N2   4265     -0.923      9.978000
  4266          H    135     DG    H21   4266     0.4235      3.024000
  4267          H    135     DG    H22   4267     0.4235      3.024000
  4268         NC    135     DG     N3   4268    -0.6636      14.010000
  4269         CB    135     DG     C4   4269     0.1814      12.010000
  4270         C7    135     DG    C3'   4270     0.0713      9.994000
  4271         H1    135     DG    H3'   4271     0.0985      3.024000
  4272         CT    135     DG    C2'   4272    -0.0854      7.978000
  4273         HC    135     DG   H2'1   4273     0.0718      3.024000
  4274         HC    135     DG   H2'2   4274     0.0718      3.024000
  4275         OS    135     DG    O3'   4275    -0.5232         16.000000   ; qtot -134.3
; residue 136 DG  rtp DG   q -1.0
  4276          P    136     DG      P   4276     1.1659      30.970000
  4277         O2    136     DG    O1P   4277    -0.7761         16.000000
  4278         O2    136     DG    O2P   4278    -0.7761         16.000000
  4279         OS    136     DG    O5'   4279    -0.4954         16.000000
  4280         CJ    136     DG    C5'   4280    -0.0069      7.978000
  4281         H1    136     DG   H5'1   4281     0.0754      3.024000
  4282         H1    136     DG   H5'2   4282     0.0754      3.024000
  4283         CT    136     DG    C4'   4283     0.1629      9.994000
  4284         H1    136     DG    H4'   4284     0.1176      3.024000
  4285         OS    136     DG    O4'   4285    -0.3691         16.000000
  4286         CT    136     DG    C1'   4286     0.0358      9.994000
  4287         H2    136     DG    H1'   4287     0.1746      3.024000
  4288         N*    136     DG     N9   4288     0.0577      14.010000
  4289         CK    136     DG     C8   4289     0.0736      9.994000
  4290         H5    136     DG     H8   4290     0.1997      3.024000
  4291         NB    136     DG     N7   4291    -0.5725      14.010000
  4292         CB    136     DG     C5   4292     0.1991      12.010000
  4293          C    136     DG     C6   4293     0.4918      12.010000
  4294          O    136     DG     O6   4294    -0.5699         16.000000
  4295         NA    136     DG     N1   4295    -0.5053      11.994000
  4296          H    136     DG     H1   4296      0.352      3.024000
  4297         CA    136     DG     C2   4297     0.7432      12.010000
  4298         N2    136     DG     N2   4298     -0.923      9.978000
  4299          H    136     DG    H21   4299     0.4235      3.024000
  4300          H    136     DG    H22   4300     0.4235      3.024000
  4301         NC    136     DG     N3   4301    -0.6636      14.010000
  4302         CB    136     DG     C4   4302     0.1814      12.010000
  4303         C7    136     DG    C3'   4303     0.0713      9.994000
  4304         H1    136     DG    H3'   4304     0.0985      3.024000
  4305         CT    136     DG    C2'   4305    -0.0854      7.978000
  4306         HC    136     DG   H2'1   4306     0.0718      3.024000
  4307         HC    136     DG   H2'2   4307     0.0718      3.024000
  4308         OS    136     DG    O3'   4308    -0.5232         16.000000   ; qtot -135.3
; residue 137 DT  rtp DT   q -1.0
  4309          P    137     DT      P   4309     1.1659      30.970000
  4310         O2    137     DT    O1P   4310    -0.7761         16.000000
  4311         O2    137     DT    O2P   4311    -0.7761         16.000000
  4312         OS    137     DT    O5'   4312    -0.4954         16.000000
  4313         CJ    137     DT    C5'   4313    -0.0069      7.978000
  4314         H1    137     DT   H5'1   4314     0.0754      3.024000
  4315         H1    137     DT   H5'2   4315     0.0754      3.024000
  4316         CT    137     DT    C4'   4316     0.1629      9.994000
  4317         H1    137     DT    H4'   4317     0.1176      3.024000
  4318         OS    137     DT    O4'   4318    -0.3691         16.000000
  4319         CT    137     DT    C1'   4319      0.068      9.994000
  4320         H2    137     DT    H1'   4320     0.1804      3.024000
  4321         N*    137     DT     N1   4321    -0.0239      14.010000
  4322         CM    137     DT     C6   4322    -0.2209      9.994000
  4323         H4    137     DT     H6   4323     0.2607      3.024000
  4324         CM    137     DT     C5   4324     0.0025      12.010000
  4325         CT    137     DT     C7   4325    -0.2269      5.962000
  4326         HC    137     DT    H71   4326      0.077      3.024000
  4327         HC    137     DT    H72   4327      0.077      3.024000
  4328         HC    137     DT    H73   4328      0.077      3.024000
  4329          C    137     DT     C4   4329     0.5194      12.010000
  4330          O    137     DT     O4   4330    -0.5563         16.000000
  4331         NA    137     DT     N3   4331     -0.434      11.994000
  4332          H    137     DT     H3   4332      0.342      3.024000
  4333          C    137     DT     C2   4333     0.5677      12.010000
  4334          O    137     DT     O2   4334    -0.5881         16.000000
  4335         C7    137     DT    C3'   4335     0.0713      9.994000
  4336         H1    137     DT    H3'   4336     0.0985      3.024000
  4337         CT    137     DT    C2'   4337    -0.0854      7.978000
  4338         HC    137     DT   H2'1   4338     0.0718      3.024000
  4339         HC    137     DT   H2'2   4339     0.0718      3.024000
  4340         OS    137     DT    O3'   4340    -0.5232         16.000000   ; qtot -136.3
; residue 138 DC  rtp DC   q -1.0
  4341          P    138     DC      P   4341     1.1659      30.970000
  4342         O2    138     DC    O1P   4342    -0.7761         16.000000
  4343         O2    138     DC    O2P   4343    -0.7761         16.000000
  4344         OS    138     DC    O5'   4344    -0.4954         16.000000
  4345         CJ    138     DC    C5'   4345    -0.0069      7.978000
  4346         H1    138     DC   H5'1   4346     0.0754      3.024000
  4347         H1    138     DC   H5'2   4347     0.0754      3.024000
  4348         CT    138     DC    C4'   4348     0.1629      9.994000
  4349         H1    138     DC    H4'   4349     0.1176      3.024000
  4350         OS    138     DC    O4'   4350    -0.3691         16.000000
  4351         CT    138     DC    C1'   4351    -0.0116      9.994000
  4352         H2    138     DC    H1'   4352     0.1963      3.024000
  4353         N*    138     DC     N1   4353    -0.0339      14.010000
  4354         C1    138     DC     C6   4354    -0.0183      9.994000
  4355         H4    138     DC     H6   4355     0.2293      3.024000
  4356         C1    138     DC     C5   4356    -0.5222      9.994000
  4357         HA    138     DC     H5   4357     0.1863      3.024000
  4358         CA    138     DC     C4   4358     0.8439      12.010000
  4359         N2    138     DC     N4   4359    -0.9773      9.978000
  4360          H    138     DC    H41   4360     0.4314      3.024000
  4361          H    138     DC    H42   4361     0.4314      3.024000
  4362         NC    138     DC     N3   4362    -0.7748      14.010000
  4363          C    138     DC     C2   4363     0.7959      12.010000
  4364          O    138     DC     O2   4364    -0.6548         16.000000
  4365         C7    138     DC    C3'   4365     0.0713      9.994000
  4366         H1    138     DC    H3'   4366     0.0985      3.024000
  4367         CT    138     DC    C2'   4367    -0.0854      7.978000
  4368         HC    138     DC   H2'1   4368     0.0718      3.024000
  4369         HC    138     DC   H2'2   4369     0.0718      3.024000
  4370         OS    138     DC    O3'   4370    -0.5232         16.000000   ; qtot -137.3
; residue 139 DC  rtp DC   q -1.0
  4371          P    139     DC      P   4371     1.1659      30.970000
  4372         O2    139     DC    O1P   4372    -0.7761         16.000000
  4373         O2    139     DC    O2P   4373    -0.7761         16.000000
  4374         OS    139     DC    O5'   4374    -0.4954         16.000000
  4375         CJ    139     DC    C5'   4375    -0.0069      7.978000
  4376         H1    139     DC   H5'1   4376     0.0754      3.024000
  4377         H1    139     DC   H5'2   4377     0.0754      3.024000
  4378         CT    139     DC    C4'   4378     0.1629      9.994000
  4379         H1    139     DC    H4'   4379     0.1176      3.024000
  4380         OS    139     DC    O4'   4380    -0.3691         16.000000
  4381         CT    139     DC    C1'   4381    -0.0116      9.994000
  4382         H2    139     DC    H1'   4382     0.1963      3.024000
  4383         N*    139     DC     N1   4383    -0.0339      14.010000
  4384         C1    139     DC     C6   4384    -0.0183      9.994000
  4385         H4    139     DC     H6   4385     0.2293      3.024000
  4386         C1    139     DC     C5   4386    -0.5222      9.994000
  4387         HA    139     DC     H5   4387     0.1863      3.024000
  4388         CA    139     DC     C4   4388     0.8439      12.010000
  4389         N2    139     DC     N4   4389    -0.9773      9.978000
  4390          H    139     DC    H41   4390     0.4314      3.024000
  4391          H    139     DC    H42   4391     0.4314      3.024000
  4392         NC    139     DC     N3   4392    -0.7748      14.010000
  4393          C    139     DC     C2   4393     0.7959      12.010000
  4394          O    139     DC     O2   4394    -0.6548         16.000000
  4395         C7    139     DC    C3'   4395     0.0713      9.994000
  4396         H1    139     DC    H3'   4396     0.0985      3.024000
  4397         CT    139     DC    C2'   4397    -0.0854      7.978000
  4398         HC    139     DC   H2'1   4398     0.0718      3.024000
  4399         HC    139     DC   H2'2   4399     0.0718      3.024000
  4400         OS    139     DC    O3'   4400    -0.5232         16.000000   ; qtot -138.3
; residue 140 DC  rtp DC   q -1.0
  4401          P    140     DC      P   4401     1.1659      30.970000
  4402         O2    140     DC    O1P   4402    -0.7761         16.000000
  4403         O2    140     DC    O2P   4403    -0.7761         16.000000
  4404         OS    140     DC    O5'   4404    -0.4954         16.000000
  4405         CJ    140     DC    C5'   4405    -0.0069      7.978000
  4406         H1    140     DC   H5'1   4406     0.0754      3.024000
  4407         H1    140     DC   H5'2   4407     0.0754      3.024000
  4408         CT    140     DC    C4'   4408     0.1629      9.994000
  4409         H1    140     DC    H4'   4409     0.1176      3.024000
  4410         OS    140     DC    O4'   4410    -0.3691         16.000000
  4411         CT    140     DC    C1'   4411    -0.0116      9.994000
  4412         H2    140     DC    H1'   4412     0.1963      3.024000
  4413         N*    140     DC     N1   4413    -0.0339      14.010000
  4414         C1    140     DC     C6   4414    -0.0183      9.994000
  4415         H4    140     DC     H6   4415     0.2293      3.024000
  4416         C1    140     DC     C5   4416    -0.5222      9.994000
  4417         HA    140     DC     H5   4417     0.1863      3.024000
  4418         CA    140     DC     C4   4418     0.8439      12.010000
  4419         N2    140     DC     N4   4419    -0.9773      9.978000
  4420          H    140     DC    H41   4420     0.4314      3.024000
  4421          H    140     DC    H42   4421     0.4314      3.024000
  4422         NC    140     DC     N3   4422    -0.7748      14.010000
  4423          C    140     DC     C2   4423     0.7959      12.010000
  4424          O    140     DC     O2   4424    -0.6548         16.000000
  4425         C7    140     DC    C3'   4425     0.0713      9.994000
  4426         H1    140     DC    H3'   4426     0.0985      3.024000
  4427         CT    140     DC    C2'   4427    -0.0854      7.978000
  4428         HC    140     DC   H2'1   4428     0.0718      3.024000
  4429         HC    140     DC   H2'2   4429     0.0718      3.024000
  4430         OS    140     DC    O3'   4430    -0.5232         16.000000   ; qtot -139.3
; residue 141 DG  rtp DG   q -1.0
  4431          P    141     DG      P   4431     1.1659      30.970000
  4432         O2    141     DG    O1P   4432    -0.7761         16.000000
  4433         O2    141     DG    O2P   4433    -0.7761         16.000000
  4434         OS    141     DG    O5'   4434    -0.4954         16.000000
  4435         CJ    141     DG    C5'   4435    -0.0069      7.978000
  4436         H1    141     DG   H5'1   4436     0.0754      3.024000
  4437         H1    141     DG   H5'2   4437     0.0754      3.024000
  4438         CT    141     DG    C4'   4438     0.1629      9.994000
  4439         H1    141     DG    H4'   4439     0.1176      3.024000
  4440         OS    141     DG    O4'   4440    -0.3691         16.000000
  4441         CT    141     DG    C1'   4441     0.0358      9.994000
  4442         H2    141     DG    H1'   4442     0.1746      3.024000
  4443         N*    141     DG     N9   4443     0.0577      14.010000
  4444         CK    141     DG     C8   4444     0.0736      9.994000
  4445         H5    141     DG     H8   4445     0.1997      3.024000
  4446         NB    141     DG     N7   4446    -0.5725      14.010000
  4447         CB    141     DG     C5   4447     0.1991      12.010000
  4448          C    141     DG     C6   4448     0.4918      12.010000
  4449          O    141     DG     O6   4449    -0.5699         16.000000
  4450         NA    141     DG     N1   4450    -0.5053      11.994000
  4451          H    141     DG     H1   4451      0.352      3.024000
  4452         CA    141     DG     C2   4452     0.7432      12.010000
  4453         N2    141     DG     N2   4453     -0.923      9.978000
  4454          H    141     DG    H21   4454     0.4235      3.024000
  4455          H    141     DG    H22   4455     0.4235      3.024000
  4456         NC    141     DG     N3   4456    -0.6636      14.010000
  4457         CB    141     DG     C4   4457     0.1814      12.010000
  4458         C7    141     DG    C3'   4458     0.0713      9.994000
  4459         H1    141     DG    H3'   4459     0.0985      3.024000
  4460         CT    141     DG    C2'   4460    -0.0854      7.978000
  4461         HC    141     DG   H2'1   4461     0.0718      3.024000
  4462         HC    141     DG   H2'2   4462     0.0718      3.024000
  4463         OS    141     DG    O3'   4463    -0.5232         16.000000   ; qtot -140.3
; residue 142 DA  rtp DA   q -1.0
  4464          P    142     DA      P   4464     1.1659      30.970000
  4465         O2    142     DA    O1P   4465    -0.7761         16.000000
  4466         O2    142     DA    O2P   4466    -0.7761         16.000000
  4467         OS    142     DA    O5'   4467    -0.4954         16.000000
  4468         CJ    142     DA    C5'   4468    -0.0069      7.978000
  4469         H1    142     DA   H5'1   4469     0.0754      3.024000
  4470         H1    142     DA   H5'2   4470     0.0754      3.024000
  4471         CT    142     DA    C4'   4471     0.1629      9.994000
  4472         H1    142     DA    H4'   4472     0.1176      3.024000
  4473         OS    142     DA    O4'   4473    -0.3691         16.000000
  4474         CT    142     DA    C1'   4474     0.0431      9.994000
  4475         H2    142     DA    H1'   4475     0.1838      3.024000
  4476         N*    142     DA     N9   4476    -0.0268      14.010000
  4477         C2    142     DA     C8   4477     0.1607      9.994000
  4478         H5    142     DA     H8   4478     0.1877      3.024000
  4479         NB    142     DA     N7   4479    -0.6175      14.010000
  4480         CB    142     DA     C5   4480     0.0725      12.010000
  4481         CA    142     DA     C6   4481     0.6897      12.010000
  4482         N2    142     DA     N6   4482    -0.9123      9.978000
  4483          H    142     DA    H61   4483     0.4167      3.024000
  4484          H    142     DA    H62   4484     0.4167      3.024000
  4485         NC    142     DA     N1   4485    -0.7624      14.010000
  4486         CQ    142     DA     C2   4486     0.5716      9.994000
  4487         H5    142     DA     H2   4487     0.0598      3.024000
  4488         NC    142     DA     N3   4488    -0.7417      14.010000
  4489         CB    142     DA     C4   4489       0.38      12.010000
  4490         C7    142     DA    C3'   4490     0.0713      9.994000
  4491         H1    142     DA    H3'   4491     0.0985      3.024000
  4492         CT    142     DA    C2'   4492    -0.0854      7.978000
  4493         HC    142     DA   H2'1   4493     0.0718      3.024000
  4494         HC    142     DA   H2'2   4494     0.0718      3.024000
  4495         OS    142     DA    O3'   4495    -0.5232         16.000000   ; qtot -141.3
; residue 143 DC  rtp DC   q -1.0
  4496          P    143     DC      P   4496     1.1659      30.970000
  4497         O2    143     DC    O1P   4497    -0.7761         16.000000
  4498         O2    143     DC    O2P   4498    -0.7761         16.000000
  4499         OS    143     DC    O5'   4499    -0.4954         16.000000
  4500         CJ    143     DC    C5'   4500    -0.0069      7.978000
  4501         H1    143     DC   H5'1   4501     0.0754      3.024000
  4502         H1    143     DC   H5'2   4502     0.0754      3.024000
  4503         CT    143     DC    C4'   4503     0.1629      9.994000
  4504         H1    143     DC    H4'   4504     0.1176      3.024000
  4505         OS    143     DC    O4'   4505    -0.3691         16.000000
  4506         CT    143     DC    C1'   4506    -0.0116      9.994000
  4507         H2    143     DC    H1'   4507     0.1963      3.024000
  4508         N*    143     DC     N1   4508    -0.0339      14.010000
  4509         C1    143     DC     C6   4509    -0.0183      9.994000
  4510         H4    143     DC     H6   4510     0.2293      3.024000
  4511         C1    143     DC     C5   4511    -0.5222      9.994000
  4512         HA    143     DC     H5   4512     0.1863      3.024000
  4513         CA    143     DC     C4   4513     0.8439      12.010000
  4514         N2    143     DC     N4   4514    -0.9773      9.978000
  4515          H    143     DC    H41   4515     0.4314      3.024000
  4516          H    143     DC    H42   4516     0.4314      3.024000
  4517         NC    143     DC     N3   4517    -0.7748      14.010000
  4518          C    143     DC     C2   4518     0.7959      12.010000
  4519          O    143     DC     O2   4519    -0.6548         16.000000
  4520         C7    143     DC    C3'   4520     0.0713      9.994000
  4521         H1    143     DC    H3'   4521     0.0985      3.024000
  4522         CT    143     DC    C2'   4522    -0.0854      7.978000
  4523         HC    143     DC   H2'1   4523     0.0718      3.024000
  4524         HC    143     DC   H2'2   4524     0.0718      3.024000
  4525         OS    143     DC    O3'   4525    -0.5232         16.000000   ; qtot -142.3
; residue 144 DC  rtp DC   q -1.0
  4526          P    144     DC      P   4526     1.1659      30.970000
  4527         O2    144     DC    O1P   4527    -0.7761         16.000000
  4528         O2    144     DC    O2P   4528    -0.7761         16.000000
  4529         OS    144     DC    O5'   4529    -0.4954         16.000000
  4530         CJ    144     DC    C5'   4530    -0.0069      7.978000
  4531         H1    144     DC   H5'1   4531     0.0754      3.024000
  4532         H1    144     DC   H5'2   4532     0.0754      3.024000
  4533         CT    144     DC    C4'   4533     0.1629      9.994000
  4534         H1    144     DC    H4'   4534     0.1176      3.024000
  4535         OS    144     DC    O4'   4535    -0.3691         16.000000
  4536         CT    144     DC    C1'   4536    -0.0116      9.994000
  4537         H2    144     DC    H1'   4537     0.1963      3.024000
  4538         N*    144     DC     N1   4538    -0.0339      14.010000
  4539         C1    144     DC     C6   4539    -0.0183      9.994000
  4540         H4    144     DC     H6   4540     0.2293      3.024000
  4541         C1    144     DC     C5   4541    -0.5222      9.994000
  4542         HA    144     DC     H5   4542     0.1863      3.024000
  4543         CA    144     DC     C4   4543     0.8439      12.010000
  4544         N2    144     DC     N4   4544    -0.9773      9.978000
  4545          H    144     DC    H41   4545     0.4314      3.024000
  4546          H    144     DC    H42   4546     0.4314      3.024000
  4547         NC    144     DC     N3   4547    -0.7748      14.010000
  4548          C    144     DC     C2   4548     0.7959      12.010000
  4549          O    144     DC     O2   4549    -0.6548         16.000000
  4550         C7    144     DC    C3'   4550     0.0713      9.994000
  4551         H1    144     DC    H3'   4551     0.0985      3.024000
  4552         CT    144     DC    C2'   4552    -0.0854      7.978000
  4553         HC    144     DC   H2'1   4553     0.0718      3.024000
  4554         HC    144     DC   H2'2   4554     0.0718      3.024000
  4555         OS    144     DC    O3'   4555    -0.5232         16.000000   ; qtot -143.3
; residue 145 DC  rtp DC   q -1.0
  4556          P    145     DC      P   4556     1.1659      30.970000
  4557         O2    145     DC    O1P   4557    -0.7761         16.000000
  4558         O2    145     DC    O2P   4558    -0.7761         16.000000
  4559         OS    145     DC    O5'   4559    -0.4954         16.000000
  4560         CJ    145     DC    C5'   4560    -0.0069      7.978000
  4561         H1    145     DC   H5'1   4561     0.0754      3.024000
  4562         H1    145     DC   H5'2   4562     0.0754      3.024000
  4563         CT    145     DC    C4'   4563     0.1629      9.994000
  4564         H1    145     DC    H4'   4564     0.1176      3.024000
  4565         OS    145     DC    O4'   4565    -0.3691         16.000000
  4566         CT    145     DC    C1'   4566    -0.0116      9.994000
  4567         H2    145     DC    H1'   4567     0.1963      3.024000
  4568         N*    145     DC     N1   4568    -0.0339      14.010000
  4569         C1    145     DC     C6   4569    -0.0183      9.994000
  4570         H4    145     DC     H6   4570     0.2293      3.024000
  4571         C1    145     DC     C5   4571    -0.5222      9.994000
  4572         HA    145     DC     H5   4572     0.1863      3.024000
  4573         CA    145     DC     C4   4573     0.8439      12.010000
  4574         N2    145     DC     N4   4574    -0.9773      9.978000
  4575          H    145     DC    H41   4575     0.4314      3.024000
  4576          H    145     DC    H42   4576     0.4314      3.024000
  4577         NC    145     DC     N3   4577    -0.7748      14.010000
  4578          C    145     DC     C2   4578     0.7959      12.010000
  4579          O    145     DC     O2   4579    -0.6548         16.000000
  4580         C7    145     DC    C3'   4580     0.0713      9.994000
  4581         H1    145     DC    H3'   4581     0.0985      3.024000
  4582         CT    145     DC    C2'   4582    -0.0854      7.978000
  4583         HC    145     DC   H2'1   4583     0.0718      3.024000
  4584         HC    145     DC   H2'2   4584     0.0718      3.024000
  4585         OS    145     DC    O3'   4585    -0.5232         16.000000   ; qtot -144.3
; residue 146 DT  rtp DT3  q -0.7
  4586          P    146     DT      P   4586     1.1659      30.970000
  4587         O2    146     DT    O1P   4587    -0.7761         16.000000
  4588         O2    146     DT    O2P   4588    -0.7761         16.000000
  4589         OS    146     DT    O5'   4589    -0.4954         16.000000
  4590         CJ    146     DT    C5'   4590    -0.0069      7.978000
  4591         H1    146     DT   H5'1   4591     0.0754      3.024000
  4592         H1    146     DT   H5'2   4592     0.0754      3.024000
  4593         CT    146     DT    C4'   4593     0.1629      9.994000
  4594         H1    146     DT    H4'   4594     0.1176      3.024000
  4595         OS    146     DT    O4'   4595    -0.3691         16.000000
  4596         CT    146     DT    C1'   4596      0.068      9.994000
  4597         H2    146     DT    H1'   4597     0.1804      3.024000
  4598         N*    146     DT     N1   4598    -0.0239      14.010000
  4599         CM    146     DT     C6   4599    -0.2209      9.994000
  4600         H4    146     DT     H6   4600     0.2607      3.024000
  4601         CM    146     DT     C5   4601     0.0025      12.010000
  4602         CT    146     DT     C7   4602    -0.2269      5.962000
  4603         HC    146     DT    H71   4603      0.077      3.024000
  4604         HC    146     DT    H72   4604      0.077      3.024000
  4605         HC    146     DT    H73   4605      0.077      3.024000
  4606          C    146     DT     C4   4606     0.5194      12.010000
  4607          O    146     DT     O4   4607    -0.5563         16.000000
  4608         NA    146     DT     N3   4608     -0.434      11.994000
  4609          H    146     DT     H3   4609      0.342      3.024000
  4610          C    146     DT     C2   4610     0.5677      12.010000
  4611          O    146     DT     O2   4611    -0.5881         16.000000
  4612         C7    146     DT    C3'   4612     0.0713      9.994000
  4613         H1    146     DT    H3'   4613     0.0985      3.024000
  4614         CT    146     DT    C2'   4614    -0.0854      7.978000
  4615         HC    146     DT   H2'1   4615     0.0718      3.024000
  4616         HC    146     DT   H2'2   4616     0.0718      3.024000
  4617         OH    146     DT    O3'   4617    -0.6549         13.984000
  4618         HO    146     DT    H3T   4618     0.4396      3.024000   ; qtot -145

[ bonds ]
;  ai    aj funct            c0            c1            c2            c3
    1     2     1 
    1     3     1 
    3     4     1 
    3     5     1 
    3     6     1 
    6     7     1 
    6     8     1 
    6    23     1 
    8     9     1 
    9    10     1 
    9    11     1 
    9    25     1 
   11    12     1 
   11    21     1 
   12    13     1 
   12    14     1 
   14    15     1 
   14    16     1 
   16    17     1 
   16    20     1 
   17    18     1 
   17    19     1 
   20    21     1 
   21    22     1 
   23    24     1 
   23    25     1 
   23    28     1 
   25    26     1 
   25    27     1 
   28    29     1 
   29    30     1 
   29    31     1 
   29    32     1 
   32    33     1 
   33    34     1 
   33    35     1 
   33    36     1 
   36    37     1 
   36    38     1 
   36    53     1 
   38    39     1 
   39    40     1 
   39    41     1 
   39    55     1 
   41    42     1 
   41    51     1 
   42    43     1 
   42    44     1 
   44    45     1 
   44    46     1 
   46    47     1 
   46    50     1 
   47    48     1 
   47    49     1 
   50    51     1 
   51    52     1 
   53    54     1 
   53    55     1 
   53    58     1 
   55    56     1 
   55    57     1 
   58    59     1 
   59    60     1 
   59    61     1 
   59    62     1 
   62    63     1 
   63    64     1 
   63    65     1 
   63    66     1 
   66    67     1 
   66    68     1 
   66    83     1 
   68    69     1 
   69    70     1 
   69    71     1 
   69    85     1 
   71    72     1 
   71    81     1 
   72    73     1 
   72    74     1 
   74    75     1 
   74    76     1 
   76    77     1 
   76    80     1 
   77    78     1 
   77    79     1 
   80    81     1 
   81    82     1 
   83    84     1 
   83    85     1 
   83    88     1 
   85    86     1 
   85    87     1 
   88    89     1 
   89    90     1 
   89    91     1 
   89    92     1 
   92    93     1 
   93    94     1 
   93    95     1 
   93    96     1 
   96    97     1 
   96    98     1 
   96   116     1 
   98    99     1 
   99   100     1 
   99   101     1 
   99   118     1 
  101   102     1 
  101   115     1 
  102   103     1 
  102   104     1 
  104   105     1 
  105   106     1 
  105   115     1 
  106   107     1 
  106   108     1 
  108   109     1 
  108   110     1 
  110   111     1 
  110   114     1 
  111   112     1 
  111   113     1 
  114   115     1 
  116   117     1 
  116   118     1 
  116   121     1 
  118   119     1 
  118   120     1 
  121   122     1 
  122   123     1 
  122   124     1 
  122   125     1 
  125   126     1 
  126   127     1 
  126   128     1 
  126   129     1 
  129   130     1 
  129   131     1 
  129   149     1 
  131   132     1 
  132   133     1 
  132   134     1 
  132   151     1 
  134   135     1 
  134   148     1 
  135   136     1 
  135   137     1 
  137   138     1 
  138   139     1 
  138   148     1 
  139   140     1 
  139   141     1 
  141   142     1 
  141   143     1 
  143   144     1 
  143   147     1 
  144   145     1 
  144   146     1 
  147   148     1 
  149   150     1 
  149   151     1 
  149   154     1 
  151   152     1 
  151   153     1 
  154   155     1 
  155   156     1 
  155   157     1 
  155   158     1 
  158   159     1 
  159   160     1 
  159   161     1 
  159   162     1 
  162   163     1 
  162   164     1 
  162   179     1 
  164   165     1 
  165   166     1 
  165   167     1 
  165   181     1 
  167   168     1 
  167   177     1 
  168   169     1 
  168   170     1 
  170   171     1 
  170   172     1 
  172   173     1 
  172   176     1 
  173   174     1 
  173   175     1 
  176   177     1 
  177   178     1 
  179   180     1 
  179   181     1 
  179   184     1 
  181   182     1 
  181   183     1 
  184   185     1 
  185   186     1 
  185   187     1 
  185   188     1 
  188   189     1 
  189   190     1 
  189   191     1 
  189   192     1 
  192   193     1 
  192   194     1 
  192   209     1 
  194   195     1 
  195   196     1 
  195   197     1 
  195   211     1 
  197   198     1 
  197   207     1 
  198   199     1 
  198   200     1 
  200   201     1 
  200   202     1 
  202   203     1 
  202   206     1 
  203   204     1 
  203   205     1 
  206   207     1 
  207   208     1 
  209   210     1 
  209   211     1 
  209   214     1 
  211   212     1 
  211   213     1 
  214   215     1 
  215   216     1 
  215   217     1 
  215   218     1 
  218   219     1 
  219   220     1 
  219   221     1 
  219   222     1 
  222   223     1 
  222   224     1 
  222   239     1 
  224   225     1 
  225   226     1 
  225   227     1 
  225   241     1 
  227   228     1 
  227   237     1 
  228   229     1 
  228   230     1 
  230   231     1 
  230   232     1 
  232   233     1 
  232   236     1 
  233   234     1 
  233   235     1 
  236   237     1 
  237   238     1 
  239   240     1 
  239   241     1 
  239   244     1 
  241   242     1 
  241   243     1 
  244   245     1 
  245   246     1 
  245   247     1 
  245   248     1 
  248   249     1 
  249   250     1 
  249   251     1 
  249   252     1 
  252   253     1 
  252   254     1 
  252   269     1 
  254   255     1 
  255   256     1 
  255   257     1 
  255   271     1 
  257   258     1 
  257   267     1 
  258   259     1 
  258   260     1 
  260   261     1 
  260   262     1 
  262   263     1 
  262   266     1 
  263   264     1 
  263   265     1 
  266   267     1 
  267   268     1 
  269   270     1 
  269   271     1 
  269   274     1 
  271   272     1 
  271   273     1 
  274   275     1 
  275   276     1 
  275   277     1 
  275   278     1 
  278   279     1 
  279   280     1 
  279   281     1 
  279   282     1 
  282   283     1 
  282   284     1 
  282   299     1 
  284   285     1 
  285   286     1 
  285   287     1 
  285   301     1 
  287   288     1 
  287   297     1 
  288   289     1 
  288   290     1 
  290   291     1 
  290   292     1 
  292   293     1 
  292   296     1 
  293   294     1 
  293   295     1 
  296   297     1 
  297   298     1 
  299   300     1 
  299   301     1 
  299   304     1 
  301   302     1 
  301   303     1 
  304   305     1 
  305   306     1 
  305   307     1 
  305   308     1 
  308   309     1 
  309   310     1 
  309   311     1 
  309   312     1 
  312   313     1 
  312   314     1 
  312   332     1 
  314   315     1 
  315   316     1 
  315   317     1 
  315   334     1 
  317   318     1 
  317   331     1 
  318   319     1 
  318   320     1 
  320   321     1 
  321   322     1 
  321   331     1 
  322   323     1 
  322   324     1 
  324   325     1 
  324   326     1 
  326   327     1 
  326   330     1 
  327   328     1 
  327   329     1 
  330   331     1 
  332   333     1 
  332   334     1 
  332   337     1 
  334   335     1 
  334   336     1 
  337   338     1 
  338   339     1 
  338   340     1 
  338   341     1 
  341   342     1 
  342   343     1 
  342   344     1 
  342   345     1 
  345   346     1 
  345   347     1 
  345   362     1 
  347   348     1 
  348   349     1 
  348   350     1 
  348   364     1 
  350   351     1 
  350   360     1 
  351   352     1 
  351   353     1 
  353   354     1 
  353   355     1 
  355   356     1 
  355   359     1 
  356   357     1 
  356   358     1 
  359   360     1 
  360   361     1 
  362   363     1 
  362   364     1 
  362   367     1 
  364   365     1 
  364   366     1 
  367   368     1 
  368   369     1 
  368   370     1 
  368   371     1 
  371   372     1 
  372   373     1 
  372   374     1 
  372   375     1 
  375   376     1 
  375   377     1 
  375   392     1 
  377   378     1 
  378   379     1 
  378   380     1 
  378   394     1 
  380   381     1 
  380   390     1 
  381   382     1 
  381   383     1 
  383   384     1 
  383   385     1 
  385   386     1 
  385   389     1 
  386   387     1 
  386   388     1 
  389   390     1 
  390   391     1 
  392   393     1 
  392   394     1 
  392   397     1 
  394   395     1 
  394   396     1 
  397   398     1 
  398   399     1 
  398   400     1 
  398   401     1 
  401   402     1 
  402   403     1 
  402   404     1 
  402   405     1 
  405   406     1 
  405   407     1 
  405   424     1 
  407   408     1 
  408   409     1 
  408   410     1 
  408   426     1 
  410   411     1 
  410   423     1 
  411   412     1 
  411   413     1 
  413   414     1 
  414   415     1 
  414   423     1 
  415   416     1 
  415   419     1 
  416   417     1 
  416   418     1 
  419   420     1 
  420   421     1 
  420   422     1 
  422   423     1 
  424   425     1 
  424   426     1 
  424   429     1 
  426   427     1 
  426   428     1 
  429   430     1 
  430   431     1 
  430   432     1 
  430   433     1 
  433   434     1 
  434   435     1 
  434   436     1 
  434   437     1 
  437   438     1 
  437   439     1 
  437   456     1 
  439   440     1 
  440   441     1 
  440   442     1 
  440   458     1 
  442   443     1 
  442   454     1 
  443   444     1 
  443   445     1 
  445   446     1 
  445   450     1 
  446   447     1 
  446   448     1 
  446   449     1 
  450   451     1 
  450   452     1 
  452   453     1 
  452   454     1 
  454   455     1 
  456   457     1 
  456   458     1 
  456   461     1 
  458   459     1 
  458   460     1 
  461   462     1 
  462   463     1 
  462   464     1 
  462   465     1 
  465   466     1 
  466   467     1 
  466   468     1 
  466   469     1 
  469   470     1 
  469   471     1 
  469   488     1 
  471   472     1 
  472   473     1 
  472   474     1 
  472   490     1 
  474   475     1 
  474   486     1 
  475   476     1 
  475   477     1 
  477   478     1 
  477   482     1 
  478   479     1 
  478   480     1 
  478   481     1 
  482   483     1 
  482   484     1 
  484   485     1 
  484   486     1 
  486   487     1 
  488   489     1 
  488   490     1 
  488   493     1 
  490   491     1 
  490   492     1 
  493   494     1 
  494   495     1 
  494   496     1 
  494   497     1 
  497   498     1 
  498   499     1 
  498   500     1 
  498   501     1 
  501   502     1 
  501   503     1 
  501   520     1 
  503   504     1 
  504   505     1 
  504   506     1 
  504   522     1 
  506   507     1 
  506   518     1 
  507   508     1 
  507   509     1 
  509   510     1 
  509   514     1 
  510   511     1 
  510   512     1 
  510   513     1 
  514   515     1 
  514   516     1 
  516   517     1 
  516   518     1 
  518   519     1 
  520   521     1 
  520   522     1 
  520   525     1 
  522   523     1 
  522   524     1 
  525   526     1 
  526   527     1 
  526   528     1 
  526   529     1 
  529   530     1 
  530   531     1 
  530   532     1 
  530   533     1 
  533   534     1 
  533   535     1 
  533   550     1 
  535   536     1 
  536   537     1 
  536   538     1 
  536   552     1 
  538   539     1 
  538   548     1 
  539   540     1 
  539   541     1 
  541   542     1 
  541   543     1 
  543   544     1 
  543   547     1 
  544   545     1 
  544   546     1 
  547   548     1 
  548   549     1 
  550   551     1 
  550   552     1 
  550   555     1 
  552   553     1 
  552   554     1 
  555   556     1 
  556   557     1 
  556   558     1 
  556   559     1 
  559   560     1 
  560   561     1 
  560   562     1 
  560   563     1 
  563   564     1 
  563   565     1 
  563   583     1 
  565   566     1 
  566   567     1 
  566   568     1 
  566   585     1 
  568   569     1 
  568   582     1 
  569   570     1 
  569   571     1 
  571   572     1 
  572   573     1 
  572   582     1 
  573   574     1 
  573   575     1 
  575   576     1 
  575   577     1 
  577   578     1 
  577   581     1 
  578   579     1 
  578   580     1 
  581   582     1 
  583   584     1 
  583   585     1 
  583   588     1 
  585   586     1 
  585   587     1 
  588   589     1 
  589   590     1 
  589   591     1 
  589   592     1 
  592   593     1 
  593   594     1 
  593   595     1 
  593   596     1 
  596   597     1 
  596   598     1 
  596   616     1 
  598   599     1 
  599   600     1 
  599   601     1 
  599   618     1 
  601   602     1 
  601   615     1 
  602   603     1 
  602   604     1 
  604   605     1 
  605   606     1 
  605   615     1 
  606   607     1 
  606   608     1 
  608   609     1 
  608   610     1 
  610   611     1 
  610   614     1 
  611   612     1 
  611   613     1 
  614   615     1 
  616   617     1 
  616   618     1 
  616   621     1 
  618   619     1 
  618   620     1 
  621   622     1 
  622   623     1 
  622   624     1 
  622   625     1 
  625   626     1 
  626   627     1 
  626   628     1 
  626   629     1 
  629   630     1 
  629   631     1 
  629   648     1 
  631   632     1 
  632   633     1 
  632   634     1 
  632   650     1 
  634   635     1 
  634   647     1 
  635   636     1 
  635   637     1 
  637   638     1 
  638   639     1 
  638   647     1 
  639   640     1 
  639   643     1 
  640   641     1 
  640   642     1 
  643   644     1 
  644   645     1 
  644   646     1 
  646   647     1 
  648   649     1 
  648   650     1 
  648   653     1 
  650   651     1 
  650   652     1 
  653   654     1 
  654   655     1 
  654   656     1 
  654   657     1 
  657   658     1 
  658   659     1 
  658   660     1 
  658   661     1 
  661   662     1 
  661   663     1 
  661   678     1 
  663   664     1 
  664   665     1 
  664   666     1 
  664   680     1 
  666   667     1 
  666   676     1 
  667   668     1 
  667   669     1 
  669   670     1 
  669   671     1 
  671   672     1 
  671   675     1 
  672   673     1 
  672   674     1 
  675   676     1 
  676   677     1 
  678   679     1 
  678   680     1 
  678   683     1 
  680   681     1 
  680   682     1 
  683   684     1 
  684   685     1 
  684   686     1 
  684   687     1 
  687   688     1 
  688   689     1 
  688   690     1 
  688   691     1 
  691   692     1 
  691   693     1 
  691   710     1 
  693   694     1 
  694   695     1 
  694   696     1 
  694   712     1 
  696   697     1 
  696   708     1 
  697   698     1 
  697   699     1 
  699   700     1 
  699   704     1 
  700   701     1 
  700   702     1 
  700   703     1 
  704   705     1 
  704   706     1 
  706   707     1 
  706   708     1 
  708   709     1 
  710   711     1 
  710   712     1 
  710   715     1 
  712   713     1 
  712   714     1 
  715   716     1 
  716   717     1 
  716   718     1 
  716   719     1 
  719   720     1 
  720   721     1 
  720   722     1 
  720   723     1 
  723   724     1 
  723   725     1 
  723   743     1 
  725   726     1 
  726   727     1 
  726   728     1 
  726   745     1 
  728   729     1 
  728   742     1 
  729   730     1 
  729   731     1 
  731   732     1 
  732   733     1 
  732   742     1 
  733   734     1 
  733   735     1 
  735   736     1 
  735   737     1 
  737   738     1 
  737   741     1 
  738   739     1 
  738   740     1 
  741   742     1 
  743   744     1 
  743   745     1 
  743   748     1 
  745   746     1 
  745   747     1 
  748   749     1 
  749   750     1 
  749   751     1 
  749   752     1 
  752   753     1 
  753   754     1 
  753   755     1 
  753   756     1 
  756   757     1 
  756   758     1 
  756   776     1 
  758   759     1 
  759   760     1 
  759   761     1 
  759   778     1 
  761   762     1 
  761   775     1 
  762   763     1 
  762   764     1 
  764   765     1 
  765   766     1 
  765   775     1 
  766   767     1 
  766   768     1 
  768   769     1 
  768   770     1 
  770   771     1 
  770   774     1 
  771   772     1 
  771   773     1 
  774   775     1 
  776   777     1 
  776   778     1 
  776   781     1 
  778   779     1 
  778   780     1 
  781   782     1 
  782   783     1 
  782   784     1 
  782   785     1 
  785   786     1 
  786   787     1 
  786   788     1 
  786   789     1 
  789   790     1 
  789   791     1 
  789   809     1 
  791   792     1 
  792   793     1 
  792   794     1 
  792   811     1 
  794   795     1 
  794   808     1 
  795   796     1 
  795   797     1 
  797   798     1 
  798   799     1 
  798   808     1 
  799   800     1 
  799   801     1 
  801   802     1 
  801   803     1 
  803   804     1 
  803   807     1 
  804   805     1 
  804   806     1 
  807   808     1 
  809   810     1 
  809   811     1 
  809   814     1 
  811   812     1 
  811   813     1 
  814   815     1 
  815   816     1 
  815   817     1 
  815   818     1 
  818   819     1 
  819   820     1 
  819   821     1 
  819   822     1 
  822   823     1 
  822   824     1 
  822   841     1 
  824   825     1 
  825   826     1 
  825   827     1 
  825   843     1 
  827   828     1 
  827   840     1 
  828   829     1 
  828   830     1 
  830   831     1 
  831   832     1 
  831   840     1 
  832   833     1 
  832   836     1 
  833   834     1 
  833   835     1 
  836   837     1 
  837   838     1 
  837   839     1 
  839   840     1 
  841   842     1 
  841   843     1 
  841   846     1 
  843   844     1 
  843   845     1 
  846   847     1 
  847   848     1 
  847   849     1 
  847   850     1 
  850   851     1 
  851   852     1 
  851   853     1 
  851   854     1 
  854   855     1 
  854   856     1 
  854   874     1 
  856   857     1 
  857   858     1 
  857   859     1 
  857   876     1 
  859   860     1 
  859   873     1 
  860   861     1 
  860   862     1 
  862   863     1 
  863   864     1 
  863   873     1 
  864   865     1 
  864   866     1 
  866   867     1 
  866   868     1 
  868   869     1 
  868   872     1 
  869   870     1 
  869   871     1 
  872   873     1 
  874   875     1 
  874   876     1 
  874   879     1 
  876   877     1 
  876   878     1 
  879   880     1 
  880   881     1 
  880   882     1 
  880   883     1 
  883   884     1 
  884   885     1 
  884   886     1 
  884   887     1 
  887   888     1 
  887   889     1 
  887   904     1 
  889   890     1 
  890   891     1 
  890   892     1 
  890   906     1 
  892   893     1 
  892   902     1 
  893   894     1 
  893   895     1 
  895   896     1 
  895   897     1 
  897   898     1 
  897   901     1 
  898   899     1 
  898   900     1 
  901   902     1 
  902   903     1 
  904   905     1 
  904   906     1 
  904   909     1 
  906   907     1 
  906   908     1 
  909   910     1 
  910   911     1 
  910   912     1 
  910   913     1 
  913   914     1 
  914   915     1 
  914   916     1 
  914   917     1 
  917   918     1 
  917   919     1 
  917   937     1 
  919   920     1 
  920   921     1 
  920   922     1 
  920   939     1 
  922   923     1 
  922   936     1 
  923   924     1 
  923   925     1 
  925   926     1 
  926   927     1 
  926   936     1 
  927   928     1 
  927   929     1 
  929   930     1 
  929   931     1 
  931   932     1 
  931   935     1 
  932   933     1 
  932   934     1 
  935   936     1 
  937   938     1 
  937   939     1 
  937   942     1 
  939   940     1 
  939   941     1 
  942   943     1 
  943   944     1 
  943   945     1 
  943   946     1 
  946   947     1 
  947   948     1 
  947   949     1 
  947   950     1 
  950   951     1 
  950   952     1 
  950   969     1 
  952   953     1 
  953   954     1 
  953   955     1 
  953   971     1 
  955   956     1 
  955   968     1 
  956   957     1 
  956   958     1 
  958   959     1 
  959   960     1 
  959   968     1 
  960   961     1 
  960   964     1 
  961   962     1 
  961   963     1 
  964   965     1 
  965   966     1 
  965   967     1 
  967   968     1 
  969   970     1 
  969   971     1 
  969   974     1 
  971   972     1 
  971   973     1 
  974   975     1 
  975   976     1 
  975   977     1 
  975   978     1 
  978   979     1 
  979   980     1 
  979   981     1 
  979   982     1 
  982   983     1 
  982   984     1 
  982  1002     1 
  984   985     1 
  985   986     1 
  985   987     1 
  985  1004     1 
  987   988     1 
  987  1001     1 
  988   989     1 
  988   990     1 
  990   991     1 
  991   992     1 
  991  1001     1 
  992   993     1 
  992   994     1 
  994   995     1 
  994   996     1 
  996   997     1 
  996  1000     1 
  997   998     1 
  997   999     1 
 1000  1001     1 
 1002  1003     1 
 1002  1004     1 
 1002  1007     1 
 1004  1005     1 
 1004  1006     1 
 1007  1008     1 
 1008  1009     1 
 1008  1010     1 
 1008  1011     1 
 1011  1012     1 
 1012  1013     1 
 1012  1014     1 
 1012  1015     1 
 1015  1016     1 
 1015  1017     1 
 1015  1032     1 
 1017  1018     1 
 1018  1019     1 
 1018  1020     1 
 1018  1034     1 
 1020  1021     1 
 1020  1030     1 
 1021  1022     1 
 1021  1023     1 
 1023  1024     1 
 1023  1025     1 
 1025  1026     1 
 1025  1029     1 
 1026  1027     1 
 1026  1028     1 
 1029  1030     1 
 1030  1031     1 
 1032  1033     1 
 1032  1034     1 
 1032  1037     1 
 1034  1035     1 
 1034  1036     1 
 1037  1038     1 
 1038  1039     1 
 1038  1040     1 
 1038  1041     1 
 1041  1042     1 
 1042  1043     1 
 1042  1044     1 
 1042  1045     1 
 1045  1046     1 
 1045  1047     1 
 1045  1065     1 
 1047  1048     1 
 1048  1049     1 
 1048  1050     1 
 1048  1067     1 
 1050  1051     1 
 1050  1064     1 
 1051  1052     1 
 1051  1053     1 
 1053  1054     1 
 1054  1055     1 
 1054  1064     1 
 1055  1056     1 
 1055  1057     1 
 1057  1058     1 
 1057  1059     1 
 1059  1060     1 
 1059  1063     1 
 1060  1061     1 
 1060  1062     1 
 1063  1064     1 
 1065  1066     1 
 1065  1067     1 
 1065  1070     1 
 1067  1068     1 
 1067  1069     1 
 1070  1071     1 
 1071  1072     1 
 1071  1073     1 
 1071  1074     1 
 1074  1075     1 
 1075  1076     1 
 1075  1077     1 
 1075  1078     1 
 1078  1079     1 
 1078  1080     1 
 1078  1095     1 
 1080  1081     1 
 1081  1082     1 
 1081  1083     1 
 1081  1097     1 
 1083  1084     1 
 1083  1093     1 
 1084  1085     1 
 1084  1086     1 
 1086  1087     1 
 1086  1088     1 
 1088  1089     1 
 1088  1092     1 
 1089  1090     1 
 1089  1091     1 
 1092  1093     1 
 1093  1094     1 
 1095  1096     1 
 1095  1097     1 
 1095  1100     1 
 1097  1098     1 
 1097  1099     1 
 1100  1101     1 
 1101  1102     1 
 1101  1103     1 
 1101  1104     1 
 1104  1105     1 
 1105  1106     1 
 1105  1107     1 
 1105  1108     1 
 1108  1109     1 
 1108  1110     1 
 1108  1128     1 
 1110  1111     1 
 1111  1112     1 
 1111  1113     1 
 1111  1130     1 
 1113  1114     1 
 1113  1127     1 
 1114  1115     1 
 1114  1116     1 
 1116  1117     1 
 1117  1118     1 
 1117  1127     1 
 1118  1119     1 
 1118  1120     1 
 1120  1121     1 
 1120  1122     1 
 1122  1123     1 
 1122  1126     1 
 1123  1124     1 
 1123  1125     1 
 1126  1127     1 
 1128  1129     1 
 1128  1130     1 
 1128  1133     1 
 1130  1131     1 
 1130  1132     1 
 1133  1134     1 
 1134  1135     1 
 1134  1136     1 
 1134  1137     1 
 1137  1138     1 
 1138  1139     1 
 1138  1140     1 
 1138  1141     1 
 1141  1142     1 
 1141  1143     1 
 1141  1161     1 
 1143  1144     1 
 1144  1145     1 
 1144  1146     1 
 1144  1163     1 
 1146  1147     1 
 1146  1160     1 
 1147  1148     1 
 1147  1149     1 
 1149  1150     1 
 1150  1151     1 
 1150  1160     1 
 1151  1152     1 
 1151  1153     1 
 1153  1154     1 
 1153  1155     1 
 1155  1156     1 
 1155  1159     1 
 1156  1157     1 
 1156  1158     1 
 1159  1160     1 
 1161  1162     1 
 1161  1163     1 
 1161  1166     1 
 1163  1164     1 
 1163  1165     1 
 1166  1167     1 
 1167  1168     1 
 1167  1169     1 
 1167  1170     1 
 1170  1171     1 
 1171  1172     1 
 1171  1173     1 
 1171  1174     1 
 1174  1175     1 
 1174  1176     1 
 1174  1191     1 
 1176  1177     1 
 1177  1178     1 
 1177  1179     1 
 1177  1193     1 
 1179  1180     1 
 1179  1189     1 
 1180  1181     1 
 1180  1182     1 
 1182  1183     1 
 1182  1184     1 
 1184  1185     1 
 1184  1188     1 
 1185  1186     1 
 1185  1187     1 
 1188  1189     1 
 1189  1190     1 
 1191  1192     1 
 1191  1193     1 
 1191  1196     1 
 1193  1194     1 
 1193  1195     1 
 1196  1197     1 
 1197  1198     1 
 1197  1199     1 
 1197  1200     1 
 1200  1201     1 
 1201  1202     1 
 1201  1203     1 
 1201  1204     1 
 1204  1205     1 
 1204  1206     1 
 1204  1224     1 
 1206  1207     1 
 1207  1208     1 
 1207  1209     1 
 1207  1226     1 
 1209  1210     1 
 1209  1223     1 
 1210  1211     1 
 1210  1212     1 
 1212  1213     1 
 1213  1214     1 
 1213  1223     1 
 1214  1215     1 
 1214  1216     1 
 1216  1217     1 
 1216  1218     1 
 1218  1219     1 
 1218  1222     1 
 1219  1220     1 
 1219  1221     1 
 1222  1223     1 
 1224  1225     1 
 1224  1226     1 
 1224  1229     1 
 1226  1227     1 
 1226  1228     1 
 1229  1230     1 
 1230  1231     1 
 1230  1232     1 
 1230  1233     1 
 1233  1234     1 
 1234  1235     1 
 1234  1236     1 
 1234  1237     1 
 1237  1238     1 
 1237  1239     1 
 1237  1254     1 
 1239  1240     1 
 1240  1241     1 
 1240  1242     1 
 1240  1256     1 
 1242  1243     1 
 1242  1252     1 
 1243  1244     1 
 1243  1245     1 
 1245  1246     1 
 1245  1247     1 
 1247  1248     1 
 1247  1251     1 
 1248  1249     1 
 1248  1250     1 
 1251  1252     1 
 1252  1253     1 
 1254  1255     1 
 1254  1256     1 
 1254  1259     1 
 1256  1257     1 
 1256  1258     1 
 1259  1260     1 
 1260  1261     1 
 1260  1262     1 
 1260  1263     1 
 1263  1264     1 
 1264  1265     1 
 1264  1266     1 
 1264  1267     1 
 1267  1268     1 
 1267  1269     1 
 1267  1286     1 
 1269  1270     1 
 1270  1271     1 
 1270  1272     1 
 1270  1288     1 
 1272  1273     1 
 1272  1285     1 
 1273  1274     1 
 1273  1275     1 
 1275  1276     1 
 1276  1277     1 
 1276  1285     1 
 1277  1278     1 
 1277  1281     1 
 1278  1279     1 
 1278  1280     1 
 1281  1282     1 
 1282  1283     1 
 1282  1284     1 
 1284  1285     1 
 1286  1287     1 
 1286  1288     1 
 1286  1291     1 
 1288  1289     1 
 1288  1290     1 
 1291  1292     1 
 1292  1293     1 
 1292  1294     1 
 1292  1295     1 
 1295  1296     1 
 1296  1297     1 
 1296  1298     1 
 1296  1299     1 
 1299  1300     1 
 1299  1301     1 
 1299  1319     1 
 1301  1302     1 
 1302  1303     1 
 1302  1304     1 
 1302  1321     1 
 1304  1305     1 
 1304  1318     1 
 1305  1306     1 
 1305  1307     1 
 1307  1308     1 
 1308  1309     1 
 1308  1318     1 
 1309  1310     1 
 1309  1311     1 
 1311  1312     1 
 1311  1313     1 
 1313  1314     1 
 1313  1317     1 
 1314  1315     1 
 1314  1316     1 
 1317  1318     1 
 1319  1320     1 
 1319  1321     1 
 1319  1324     1 
 1321  1322     1 
 1321  1323     1 
 1324  1325     1 
 1325  1326     1 
 1325  1327     1 
 1325  1328     1 
 1328  1329     1 
 1329  1330     1 
 1329  1331     1 
 1329  1332     1 
 1332  1333     1 
 1332  1334     1 
 1332  1352     1 
 1334  1335     1 
 1335  1336     1 
 1335  1337     1 
 1335  1354     1 
 1337  1338     1 
 1337  1351     1 
 1338  1339     1 
 1338  1340     1 
 1340  1341     1 
 1341  1342     1 
 1341  1351     1 
 1342  1343     1 
 1342  1344     1 
 1344  1345     1 
 1344  1346     1 
 1346  1347     1 
 1346  1350     1 
 1347  1348     1 
 1347  1349     1 
 1350  1351     1 
 1352  1353     1 
 1352  1354     1 
 1352  1357     1 
 1354  1355     1 
 1354  1356     1 
 1357  1358     1 
 1358  1359     1 
 1358  1360     1 
 1358  1361     1 
 1361  1362     1 
 1362  1363     1 
 1362  1364     1 
 1362  1365     1 
 1365  1366     1 
 1365  1367     1 
 1365  1382     1 
 1367  1368     1 
 1368  1369     1 
 1368  1370     1 
 1368  1384     1 
 1370  1371     1 
 1370  1380     1 
 1371  1372     1 
 1371  1373     1 
 1373  1374     1 
 1373  1375     1 
 1375  1376     1 
 1375  1379     1 
 1376  1377     1 
 1376  1378     1 
 1379  1380     1 
 1380  1381     1 
 1382  1383     1 
 1382  1384     1 
 1382  1387     1 
 1384  1385     1 
 1384  1386     1 
 1387  1388     1 
 1388  1389     1 
 1388  1390     1 
 1388  1391     1 
 1391  1392     1 
 1392  1393     1 
 1392  1394     1 
 1392  1395     1 
 1395  1396     1 
 1395  1397     1 
 1395  1414     1 
 1397  1398     1 
 1398  1399     1 
 1398  1400     1 
 1398  1416     1 
 1400  1401     1 
 1400  1413     1 
 1401  1402     1 
 1401  1403     1 
 1403  1404     1 
 1404  1405     1 
 1404  1413     1 
 1405  1406     1 
 1405  1409     1 
 1406  1407     1 
 1406  1408     1 
 1409  1410     1 
 1410  1411     1 
 1410  1412     1 
 1412  1413     1 
 1414  1415     1 
 1414  1416     1 
 1414  1419     1 
 1416  1417     1 
 1416  1418     1 
 1419  1420     1 
 1420  1421     1 
 1420  1422     1 
 1420  1423     1 
 1423  1424     1 
 1424  1425     1 
 1424  1426     1 
 1424  1427     1 
 1427  1428     1 
 1427  1429     1 
 1427  1444     1 
 1429  1430     1 
 1430  1431     1 
 1430  1432     1 
 1430  1446     1 
 1432  1433     1 
 1432  1442     1 
 1433  1434     1 
 1433  1435     1 
 1435  1436     1 
 1435  1437     1 
 1437  1438     1 
 1437  1441     1 
 1438  1439     1 
 1438  1440     1 
 1441  1442     1 
 1442  1443     1 
 1444  1445     1 
 1444  1446     1 
 1444  1449     1 
 1446  1447     1 
 1446  1448     1 
 1449  1450     1 
 1450  1451     1 
 1450  1452     1 
 1450  1453     1 
 1453  1454     1 
 1454  1455     1 
 1454  1456     1 
 1454  1457     1 
 1457  1458     1 
 1457  1459     1 
 1457  1476     1 
 1459  1460     1 
 1460  1461     1 
 1460  1462     1 
 1460  1478     1 
 1462  1463     1 
 1462  1474     1 
 1463  1464     1 
 1463  1465     1 
 1465  1466     1 
 1465  1470     1 
 1466  1467     1 
 1466  1468     1 
 1466  1469     1 
 1470  1471     1 
 1470  1472     1 
 1472  1473     1 
 1472  1474     1 
 1474  1475     1 
 1476  1477     1 
 1476  1478     1 
 1476  1481     1 
 1478  1479     1 
 1478  1480     1 
 1481  1482     1 
 1482  1483     1 
 1482  1484     1 
 1482  1485     1 
 1485  1486     1 
 1486  1487     1 
 1486  1488     1 
 1486  1489     1 
 1489  1490     1 
 1489  1491     1 
 1489  1509     1 
 1491  1492     1 
 1492  1493     1 
 1492  1494     1 
 1492  1511     1 
 1494  1495     1 
 1494  1508     1 
 1495  1496     1 
 1495  1497     1 
 1497  1498     1 
 1498  1499     1 
 1498  1508     1 
 1499  1500     1 
 1499  1501     1 
 1501  1502     1 
 1501  1503     1 
 1503  1504     1 
 1503  1507     1 
 1504  1505     1 
 1504  1506     1 
 1507  1508     1 
 1509  1510     1 
 1509  1511     1 
 1509  1514     1 
 1511  1512     1 
 1511  1513     1 
 1514  1515     1 
 1515  1516     1 
 1515  1517     1 
 1515  1518     1 
 1518  1519     1 
 1519  1520     1 
 1519  1521     1 
 1519  1522     1 
 1522  1523     1 
 1522  1524     1 
 1522  1541     1 
 1524  1525     1 
 1525  1526     1 
 1525  1527     1 
 1525  1543     1 
 1527  1528     1 
 1527  1540     1 
 1528  1529     1 
 1528  1530     1 
 1530  1531     1 
 1531  1532     1 
 1531  1540     1 
 1532  1533     1 
 1532  1536     1 
 1533  1534     1 
 1533  1535     1 
 1536  1537     1 
 1537  1538     1 
 1537  1539     1 
 1539  1540     1 
 1541  1542     1 
 1541  1543     1 
 1541  1546     1 
 1543  1544     1 
 1543  1545     1 
 1546  1547     1 
 1547  1548     1 
 1547  1549     1 
 1547  1550     1 
 1550  1551     1 
 1551  1552     1 
 1551  1553     1 
 1551  1554     1 
 1554  1555     1 
 1554  1556     1 
 1554  1573     1 
 1556  1557     1 
 1557  1558     1 
 1557  1559     1 
 1557  1575     1 
 1559  1560     1 
 1559  1572     1 
 1560  1561     1 
 1560  1562     1 
 1562  1563     1 
 1563  1564     1 
 1563  1572     1 
 1564  1565     1 
 1564  1568     1 
 1565  1566     1 
 1565  1567     1 
 1568  1569     1 
 1569  1570     1 
 1569  1571     1 
 1571  1572     1 
 1573  1574     1 
 1573  1575     1 
 1573  1578     1 
 1575  1576     1 
 1575  1577     1 
 1578  1579     1 
 1579  1580     1 
 1579  1581     1 
 1579  1582     1 
 1582  1583     1 
 1583  1584     1 
 1583  1585     1 
 1583  1586     1 
 1586  1587     1 
 1586  1588     1 
 1586  1606     1 
 1588  1589     1 
 1589  1590     1 
 1589  1591     1 
 1589  1608     1 
 1591  1592     1 
 1591  1605     1 
 1592  1593     1 
 1592  1594     1 
 1594  1595     1 
 1595  1596     1 
 1595  1605     1 
 1596  1597     1 
 1596  1598     1 
 1598  1599     1 
 1598  1600     1 
 1600  1601     1 
 1600  1604     1 
 1601  1602     1 
 1601  1603     1 
 1604  1605     1 
 1606  1607     1 
 1606  1608     1 
 1606  1611     1 
 1608  1609     1 
 1608  1610     1 
 1611  1612     1 
 1612  1613     1 
 1612  1614     1 
 1612  1615     1 
 1615  1616     1 
 1616  1617     1 
 1616  1618     1 
 1616  1619     1 
 1619  1620     1 
 1619  1621     1 
 1619  1639     1 
 1621  1622     1 
 1622  1623     1 
 1622  1624     1 
 1622  1641     1 
 1624  1625     1 
 1624  1638     1 
 1625  1626     1 
 1625  1627     1 
 1627  1628     1 
 1628  1629     1 
 1628  1638     1 
 1629  1630     1 
 1629  1631     1 
 1631  1632     1 
 1631  1633     1 
 1633  1634     1 
 1633  1637     1 
 1634  1635     1 
 1634  1636     1 
 1637  1638     1 
 1639  1640     1 
 1639  1641     1 
 1639  1644     1 
 1641  1642     1 
 1641  1643     1 
 1644  1645     1 
 1645  1646     1 
 1645  1647     1 
 1645  1648     1 
 1648  1649     1 
 1649  1650     1 
 1649  1651     1 
 1649  1652     1 
 1652  1653     1 
 1652  1654     1 
 1652  1669     1 
 1654  1655     1 
 1655  1656     1 
 1655  1657     1 
 1655  1671     1 
 1657  1658     1 
 1657  1667     1 
 1658  1659     1 
 1658  1660     1 
 1660  1661     1 
 1660  1662     1 
 1662  1663     1 
 1662  1666     1 
 1663  1664     1 
 1663  1665     1 
 1666  1667     1 
 1667  1668     1 
 1669  1670     1 
 1669  1671     1 
 1669  1674     1 
 1671  1672     1 
 1671  1673     1 
 1674  1675     1 
 1675  1676     1 
 1675  1677     1 
 1675  1678     1 
 1678  1679     1 
 1679  1680     1 
 1679  1681     1 
 1679  1682     1 
 1682  1683     1 
 1682  1684     1 
 1682  1702     1 
 1684  1685     1 
 1685  1686     1 
 1685  1687     1 
 1685  1704     1 
 1687  1688     1 
 1687  1701     1 
 1688  1689     1 
 1688  1690     1 
 1690  1691     1 
 1691  1692     1 
 1691  1701     1 
 1692  1693     1 
 1692  1694     1 
 1694  1695     1 
 1694  1696     1 
 1696  1697     1 
 1696  1700     1 
 1697  1698     1 
 1697  1699     1 
 1700  1701     1 
 1702  1703     1 
 1702  1704     1 
 1702  1707     1 
 1704  1705     1 
 1704  1706     1 
 1707  1708     1 
 1708  1709     1 
 1708  1710     1 
 1708  1711     1 
 1711  1712     1 
 1712  1713     1 
 1712  1714     1 
 1712  1715     1 
 1715  1716     1 
 1715  1717     1 
 1715  1735     1 
 1717  1718     1 
 1718  1719     1 
 1718  1720     1 
 1718  1737     1 
 1720  1721     1 
 1720  1734     1 
 1721  1722     1 
 1721  1723     1 
 1723  1724     1 
 1724  1725     1 
 1724  1734     1 
 1725  1726     1 
 1725  1727     1 
 1727  1728     1 
 1727  1729     1 
 1729  1730     1 
 1729  1733     1 
 1730  1731     1 
 1730  1732     1 
 1733  1734     1 
 1735  1736     1 
 1735  1737     1 
 1735  1740     1 
 1737  1738     1 
 1737  1739     1 
 1740  1741     1 
 1741  1742     1 
 1741  1743     1 
 1741  1744     1 
 1744  1745     1 
 1745  1746     1 
 1745  1747     1 
 1745  1748     1 
 1748  1749     1 
 1748  1750     1 
 1748  1765     1 
 1750  1751     1 
 1751  1752     1 
 1751  1753     1 
 1751  1767     1 
 1753  1754     1 
 1753  1763     1 
 1754  1755     1 
 1754  1756     1 
 1756  1757     1 
 1756  1758     1 
 1758  1759     1 
 1758  1762     1 
 1759  1760     1 
 1759  1761     1 
 1762  1763     1 
 1763  1764     1 
 1765  1766     1 
 1765  1767     1 
 1765  1770     1 
 1767  1768     1 
 1767  1769     1 
 1770  1771     1 
 1771  1772     1 
 1771  1773     1 
 1771  1774     1 
 1774  1775     1 
 1775  1776     1 
 1775  1777     1 
 1775  1778     1 
 1778  1779     1 
 1778  1780     1 
 1778  1798     1 
 1780  1781     1 
 1781  1782     1 
 1781  1783     1 
 1781  1800     1 
 1783  1784     1 
 1783  1797     1 
 1784  1785     1 
 1784  1786     1 
 1786  1787     1 
 1787  1788     1 
 1787  1797     1 
 1788  1789     1 
 1788  1790     1 
 1790  1791     1 
 1790  1792     1 
 1792  1793     1 
 1792  1796     1 
 1793  1794     1 
 1793  1795     1 
 1796  1797     1 
 1798  1799     1 
 1798  1800     1 
 1798  1803     1 
 1800  1801     1 
 1800  1802     1 
 1803  1804     1 
 1804  1805     1 
 1804  1806     1 
 1804  1807     1 
 1807  1808     1 
 1808  1809     1 
 1808  1810     1 
 1808  1811     1 
 1811  1812     1 
 1811  1813     1 
 1811  1831     1 
 1813  1814     1 
 1814  1815     1 
 1814  1816     1 
 1814  1833     1 
 1816  1817     1 
 1816  1830     1 
 1817  1818     1 
 1817  1819     1 
 1819  1820     1 
 1820  1821     1 
 1820  1830     1 
 1821  1822     1 
 1821  1823     1 
 1823  1824     1 
 1823  1825     1 
 1825  1826     1 
 1825  1829     1 
 1826  1827     1 
 1826  1828     1 
 1829  1830     1 
 1831  1832     1 
 1831  1833     1 
 1831  1836     1 
 1833  1834     1 
 1833  1835     1 
 1836  1837     1 
 1837  1838     1 
 1837  1839     1 
 1837  1840     1 
 1840  1841     1 
 1841  1842     1 
 1841  1843     1 
 1841  1844     1 
 1844  1845     1 
 1844  1846     1 
 1844  1861     1 
 1846  1847     1 
 1847  1848     1 
 1847  1849     1 
 1847  1863     1 
 1849  1850     1 
 1849  1859     1 
 1850  1851     1 
 1850  1852     1 
 1852  1853     1 
 1852  1854     1 
 1854  1855     1 
 1854  1858     1 
 1855  1856     1 
 1855  1857     1 
 1858  1859     1 
 1859  1860     1 
 1861  1862     1 
 1861  1863     1 
 1861  1866     1 
 1863  1864     1 
 1863  1865     1 
 1866  1867     1 
 1867  1868     1 
 1867  1869     1 
 1867  1870     1 
 1870  1871     1 
 1871  1872     1 
 1871  1873     1 
 1871  1874     1 
 1874  1875     1 
 1874  1876     1 
 1874  1894     1 
 1876  1877     1 
 1877  1878     1 
 1877  1879     1 
 1877  1896     1 
 1879  1880     1 
 1879  1893     1 
 1880  1881     1 
 1880  1882     1 
 1882  1883     1 
 1883  1884     1 
 1883  1893     1 
 1884  1885     1 
 1884  1886     1 
 1886  1887     1 
 1886  1888     1 
 1888  1889     1 
 1888  1892     1 
 1889  1890     1 
 1889  1891     1 
 1892  1893     1 
 1894  1895     1 
 1894  1896     1 
 1894  1899     1 
 1896  1897     1 
 1896  1898     1 
 1899  1900     1 
 1900  1901     1 
 1900  1902     1 
 1900  1903     1 
 1903  1904     1 
 1904  1905     1 
 1904  1906     1 
 1904  1907     1 
 1907  1908     1 
 1907  1909     1 
 1907  1927     1 
 1909  1910     1 
 1910  1911     1 
 1910  1912     1 
 1910  1929     1 
 1912  1913     1 
 1912  1926     1 
 1913  1914     1 
 1913  1915     1 
 1915  1916     1 
 1916  1917     1 
 1916  1926     1 
 1917  1918     1 
 1917  1919     1 
 1919  1920     1 
 1919  1921     1 
 1921  1922     1 
 1921  1925     1 
 1922  1923     1 
 1922  1924     1 
 1925  1926     1 
 1927  1928     1 
 1927  1929     1 
 1927  1932     1 
 1929  1930     1 
 1929  1931     1 
 1932  1933     1 
 1933  1934     1 
 1933  1935     1 
 1933  1936     1 
 1936  1937     1 
 1937  1938     1 
 1937  1939     1 
 1937  1940     1 
 1940  1941     1 
 1940  1942     1 
 1940  1960     1 
 1942  1943     1 
 1943  1944     1 
 1943  1945     1 
 1943  1962     1 
 1945  1946     1 
 1945  1959     1 
 1946  1947     1 
 1946  1948     1 
 1948  1949     1 
 1949  1950     1 
 1949  1959     1 
 1950  1951     1 
 1950  1952     1 
 1952  1953     1 
 1952  1954     1 
 1954  1955     1 
 1954  1958     1 
 1955  1956     1 
 1955  1957     1 
 1958  1959     1 
 1960  1961     1 
 1960  1962     1 
 1960  1965     1 
 1962  1963     1 
 1962  1964     1 
 1965  1966     1 
 1966  1967     1 
 1966  1968     1 
 1966  1969     1 
 1969  1970     1 
 1970  1971     1 
 1970  1972     1 
 1970  1973     1 
 1973  1974     1 
 1973  1975     1 
 1973  1993     1 
 1975  1976     1 
 1976  1977     1 
 1976  1978     1 
 1976  1995     1 
 1978  1979     1 
 1978  1992     1 
 1979  1980     1 
 1979  1981     1 
 1981  1982     1 
 1982  1983     1 
 1982  1992     1 
 1983  1984     1 
 1983  1985     1 
 1985  1986     1 
 1985  1987     1 
 1987  1988     1 
 1987  1991     1 
 1988  1989     1 
 1988  1990     1 
 1991  1992     1 
 1993  1994     1 
 1993  1995     1 
 1993  1998     1 
 1995  1996     1 
 1995  1997     1 
 1998  1999     1 
 1999  2000     1 
 1999  2001     1 
 1999  2002     1 
 2002  2003     1 
 2003  2004     1 
 2003  2005     1 
 2003  2006     1 
 2006  2007     1 
 2006  2008     1 
 2006  2023     1 
 2008  2009     1 
 2009  2010     1 
 2009  2011     1 
 2009  2025     1 
 2011  2012     1 
 2011  2021     1 
 2012  2013     1 
 2012  2014     1 
 2014  2015     1 
 2014  2016     1 
 2016  2017     1 
 2016  2020     1 
 2017  2018     1 
 2017  2019     1 
 2020  2021     1 
 2021  2022     1 
 2023  2024     1 
 2023  2025     1 
 2023  2028     1 
 2025  2026     1 
 2025  2027     1 
 2028  2029     1 
 2029  2030     1 
 2029  2031     1 
 2029  2032     1 
 2032  2033     1 
 2033  2034     1 
 2033  2035     1 
 2033  2036     1 
 2036  2037     1 
 2036  2038     1 
 2036  2053     1 
 2038  2039     1 
 2039  2040     1 
 2039  2041     1 
 2039  2055     1 
 2041  2042     1 
 2041  2051     1 
 2042  2043     1 
 2042  2044     1 
 2044  2045     1 
 2044  2046     1 
 2046  2047     1 
 2046  2050     1 
 2047  2048     1 
 2047  2049     1 
 2050  2051     1 
 2051  2052     1 
 2053  2054     1 
 2053  2055     1 
 2053  2058     1 
 2055  2056     1 
 2055  2057     1 
 2058  2059     1 
 2059  2060     1 
 2059  2061     1 
 2059  2062     1 
 2062  2063     1 
 2063  2064     1 
 2063  2065     1 
 2063  2066     1 
 2066  2067     1 
 2066  2068     1 
 2066  2085     1 
 2068  2069     1 
 2069  2070     1 
 2069  2071     1 
 2069  2087     1 
 2071  2072     1 
 2071  2084     1 
 2072  2073     1 
 2072  2074     1 
 2074  2075     1 
 2075  2076     1 
 2075  2084     1 
 2076  2077     1 
 2076  2080     1 
 2077  2078     1 
 2077  2079     1 
 2080  2081     1 
 2081  2082     1 
 2081  2083     1 
 2083  2084     1 
 2085  2086     1 
 2085  2087     1 
 2085  2090     1 
 2087  2088     1 
 2087  2089     1 
 2090  2091     1 
 2091  2092     1 
 2091  2093     1 
 2091  2094     1 
 2094  2095     1 
 2095  2096     1 
 2095  2097     1 
 2095  2098     1 
 2098  2099     1 
 2098  2100     1 
 2098  2118     1 
 2100  2101     1 
 2101  2102     1 
 2101  2103     1 
 2101  2120     1 
 2103  2104     1 
 2103  2117     1 
 2104  2105     1 
 2104  2106     1 
 2106  2107     1 
 2107  2108     1 
 2107  2117     1 
 2108  2109     1 
 2108  2110     1 
 2110  2111     1 
 2110  2112     1 
 2112  2113     1 
 2112  2116     1 
 2113  2114     1 
 2113  2115     1 
 2116  2117     1 
 2118  2119     1 
 2118  2120     1 
 2118  2123     1 
 2120  2121     1 
 2120  2122     1 
 2123  2124     1 
 2124  2125     1 
 2124  2126     1 
 2124  2127     1 
 2127  2128     1 
 2128  2129     1 
 2128  2130     1 
 2128  2131     1 
 2131  2132     1 
 2131  2133     1 
 2131  2150     1 
 2133  2134     1 
 2134  2135     1 
 2134  2136     1 
 2134  2152     1 
 2136  2137     1 
 2136  2149     1 
 2137  2138     1 
 2137  2139     1 
 2139  2140     1 
 2140  2141     1 
 2140  2149     1 
 2141  2142     1 
 2141  2145     1 
 2142  2143     1 
 2142  2144     1 
 2145  2146     1 
 2146  2147     1 
 2146  2148     1 
 2148  2149     1 
 2150  2151     1 
 2150  2152     1 
 2150  2155     1 
 2152  2153     1 
 2152  2154     1 
 2155  2156     1 
 2156  2157     1 
 2156  2158     1 
 2156  2159     1 
 2159  2160     1 
 2160  2161     1 
 2160  2162     1 
 2160  2163     1 
 2163  2164     1 
 2163  2165     1 
 2163  2183     1 
 2165  2166     1 
 2166  2167     1 
 2166  2168     1 
 2166  2185     1 
 2168  2169     1 
 2168  2182     1 
 2169  2170     1 
 2169  2171     1 
 2171  2172     1 
 2172  2173     1 
 2172  2182     1 
 2173  2174     1 
 2173  2175     1 
 2175  2176     1 
 2175  2177     1 
 2177  2178     1 
 2177  2181     1 
 2178  2179     1 
 2178  2180     1 
 2181  2182     1 
 2183  2184     1 
 2183  2185     1 
 2183  2188     1 
 2185  2186     1 
 2185  2187     1 
 2188  2189     1 
 2189  2190     1 
 2189  2191     1 
 2189  2192     1 
 2192  2193     1 
 2193  2194     1 
 2193  2195     1 
 2193  2196     1 
 2196  2197     1 
 2196  2198     1 
 2196  2216     1 
 2198  2199     1 
 2199  2200     1 
 2199  2201     1 
 2199  2218     1 
 2201  2202     1 
 2201  2215     1 
 2202  2203     1 
 2202  2204     1 
 2204  2205     1 
 2205  2206     1 
 2205  2215     1 
 2206  2207     1 
 2206  2208     1 
 2208  2209     1 
 2208  2210     1 
 2210  2211     1 
 2210  2214     1 
 2211  2212     1 
 2211  2213     1 
 2214  2215     1 
 2216  2217     1 
 2216  2218     1 
 2216  2221     1 
 2218  2219     1 
 2218  2220     1 
 2221  2222     1 
 2222  2223     1 
 2222  2224     1 
 2222  2225     1 
 2225  2226     1 
 2226  2227     1 
 2226  2228     1 
 2226  2229     1 
 2229  2230     1 
 2229  2231     1 
 2229  2246     1 
 2231  2232     1 
 2232  2233     1 
 2232  2234     1 
 2232  2248     1 
 2234  2235     1 
 2234  2244     1 
 2235  2236     1 
 2235  2237     1 
 2237  2238     1 
 2237  2239     1 
 2239  2240     1 
 2239  2243     1 
 2240  2241     1 
 2240  2242     1 
 2243  2244     1 
 2244  2245     1 
 2246  2247     1 
 2246  2248     1 
 2246  2251     1 
 2248  2249     1 
 2248  2250     1 
 2251  2252     1 
 2252  2253     1 
 2252  2254     1 
 2252  2255     1 
 2255  2256     1 
 2256  2257     1 
 2256  2258     1 
 2256  2259     1 
 2259  2260     1 
 2259  2261     1 
 2259  2278     1 
 2261  2262     1 
 2262  2263     1 
 2262  2264     1 
 2262  2280     1 
 2264  2265     1 
 2264  2276     1 
 2265  2266     1 
 2265  2267     1 
 2267  2268     1 
 2267  2272     1 
 2268  2269     1 
 2268  2270     1 
 2268  2271     1 
 2272  2273     1 
 2272  2274     1 
 2274  2275     1 
 2274  2276     1 
 2276  2277     1 
 2278  2279     1 
 2278  2280     1 
 2278  2283     1 
 2280  2281     1 
 2280  2282     1 
 2283  2284     1 
 2284  2285     1 
 2284  2286     1 
 2284  2287     1 
 2287  2288     1 
 2288  2289     1 
 2288  2290     1 
 2288  2291     1 
 2291  2292     1 
 2291  2293     1 
 2291  2308     1 
 2293  2294     1 
 2294  2295     1 
 2294  2296     1 
 2294  2310     1 
 2296  2297     1 
 2296  2306     1 
 2297  2298     1 
 2297  2299     1 
 2299  2300     1 
 2299  2301     1 
 2301  2302     1 
 2301  2305     1 
 2302  2303     1 
 2302  2304     1 
 2305  2306     1 
 2306  2307     1 
 2308  2309     1 
 2308  2310     1 
 2308  2313     1 
 2310  2311     1 
 2310  2312     1 
 2313  2314     1 
 2314  2315     1 
 2314  2316     1 
 2314  2317     1 
 2317  2318     1 
 2318  2319     1 
 2318  2320     1 
 2318  2321     1 
 2321  2322     1 
 2321  2323     1 
 2321  2340     1 
 2323  2324     1 
 2324  2325     1 
 2324  2326     1 
 2324  2342     1 
 2326  2327     1 
 2326  2339     1 
 2327  2328     1 
 2327  2329     1 
 2329  2330     1 
 2330  2331     1 
 2330  2339     1 
 2331  2332     1 
 2331  2335     1 
 2332  2333     1 
 2332  2334     1 
 2335  2336     1 
 2336  2337     1 
 2336  2338     1 
 2338  2339     1 
 2340  2341     1 
 2340  2342     1 
 2340  2345     1 
 2342  2343     1 
 2342  2344     1 
 2345  2346     1 
 2346  2347     1 
 2346  2348     1 
 2346  2349     1 
 2349  2350     1 
 2350  2351     1 
 2350  2352     1 
 2350  2353     1 
 2353  2354     1 
 2353  2355     1 
 2353  2373     1 
 2355  2356     1 
 2356  2357     1 
 2356  2358     1 
 2356  2375     1 
 2358  2359     1 
 2358  2372     1 
 2359  2360     1 
 2359  2361     1 
 2361  2362     1 
 2362  2363     1 
 2362  2372     1 
 2363  2364     1 
 2363  2365     1 
 2365  2366     1 
 2365  2367     1 
 2367  2368     1 
 2367  2371     1 
 2368  2369     1 
 2368  2370     1 
 2371  2372     1 
 2373  2374     1 
 2373  2375     1 
 2373  2378     1 
 2375  2376     1 
 2375  2377     1 
 2378  2379     1 
 2379  2380     1 
 2379  2381     1 
 2379  2382     1 
 2382  2383     1 
 2383  2384     1 
 2383  2385     1 
 2383  2386     1 
 2386  2387     1 
 2386  2388     1 
 2386  2403     1 
 2388  2389     1 
 2389  2390     1 
 2389  2391     1 
 2389  2405     1 
 2391  2392     1 
 2391  2401     1 
 2392  2393     1 
 2392  2394     1 
 2394  2395     1 
 2394  2396     1 
 2396  2397     1 
 2396  2400     1 
 2397  2398     1 
 2397  2399     1 
 2400  2401     1 
 2401  2402     1 
 2403  2404     1 
 2403  2405     1 
 2403  2408     1 
 2405  2406     1 
 2405  2407     1 
 2408  2409     1 
 2409  2410     1 
 2409  2411     1 
 2409  2412     1 
 2412  2413     1 
 2413  2414     1 
 2413  2415     1 
 2413  2416     1 
 2416  2417     1 
 2416  2418     1 
 2416  2436     1 
 2418  2419     1 
 2419  2420     1 
 2419  2421     1 
 2419  2438     1 
 2421  2422     1 
 2421  2435     1 
 2422  2423     1 
 2422  2424     1 
 2424  2425     1 
 2425  2426     1 
 2425  2435     1 
 2426  2427     1 
 2426  2428     1 
 2428  2429     1 
 2428  2430     1 
 2430  2431     1 
 2430  2434     1 
 2431  2432     1 
 2431  2433     1 
 2434  2435     1 
 2436  2437     1 
 2436  2438     1 
 2436  2441     1 
 2438  2439     1 
 2438  2440     1 
 2441  2442     1 
 2442  2443     1 
 2442  2444     1 
 2442  2445     1 
 2445  2446     1 
 2446  2447     1 
 2446  2448     1 
 2446  2449     1 
 2449  2450     1 
 2449  2451     1 
 2449  2469     1 
 2451  2452     1 
 2452  2453     1 
 2452  2454     1 
 2452  2471     1 
 2454  2455     1 
 2454  2468     1 
 2455  2456     1 
 2455  2457     1 
 2457  2458     1 
 2458  2459     1 
 2458  2468     1 
 2459  2460     1 
 2459  2461     1 
 2461  2462     1 
 2461  2463     1 
 2463  2464     1 
 2463  2467     1 
 2464  2465     1 
 2464  2466     1 
 2467  2468     1 
 2469  2470     1 
 2469  2471     1 
 2469  2474     1 
 2471  2472     1 
 2471  2473     1 
 2474  2475     1 
 2475  2476     1 
 2475  2477     1 
 2475  2478     1 
 2478  2479     1 
 2479  2480     1 
 2479  2481     1 
 2479  2482     1 
 2482  2483     1 
 2482  2484     1 
 2482  2499     1 
 2484  2485     1 
 2485  2486     1 
 2485  2487     1 
 2485  2501     1 
 2487  2488     1 
 2487  2497     1 
 2488  2489     1 
 2488  2490     1 
 2490  2491     1 
 2490  2492     1 
 2492  2493     1 
 2492  2496     1 
 2493  2494     1 
 2493  2495     1 
 2496  2497     1 
 2497  2498     1 
 2499  2500     1 
 2499  2501     1 
 2499  2504     1 
 2501  2502     1 
 2501  2503     1 
 2504  2505     1 
 2505  2506     1 
 2505  2507     1 
 2505  2508     1 
 2508  2509     1 
 2509  2510     1 
 2509  2511     1 
 2509  2512     1 
 2512  2513     1 
 2512  2514     1 
 2512  2531     1 
 2514  2515     1 
 2515  2516     1 
 2515  2517     1 
 2515  2533     1 
 2517  2518     1 
 2517  2529     1 
 2518  2519     1 
 2518  2520     1 
 2520  2521     1 
 2520  2525     1 
 2521  2522     1 
 2521  2523     1 
 2521  2524     1 
 2525  2526     1 
 2525  2527     1 
 2527  2528     1 
 2527  2529     1 
 2529  2530     1 
 2531  2532     1 
 2531  2533     1 
 2531  2536     1 
 2533  2534     1 
 2533  2535     1 
 2536  2537     1 
 2537  2538     1 
 2537  2539     1 
 2537  2540     1 
 2540  2541     1 
 2541  2542     1 
 2541  2543     1 
 2541  2544     1 
 2544  2545     1 
 2544  2546     1 
 2544  2561     1 
 2546  2547     1 
 2547  2548     1 
 2547  2549     1 
 2547  2563     1 
 2549  2550     1 
 2549  2559     1 
 2550  2551     1 
 2550  2552     1 
 2552  2553     1 
 2552  2554     1 
 2554  2555     1 
 2554  2558     1 
 2555  2556     1 
 2555  2557     1 
 2558  2559     1 
 2559  2560     1 
 2561  2562     1 
 2561  2563     1 
 2561  2566     1 
 2563  2564     1 
 2563  2565     1 
 2566  2567     1 
 2567  2568     1 
 2567  2569     1 
 2567  2570     1 
 2570  2571     1 
 2571  2572     1 
 2571  2573     1 
 2571  2574     1 
 2574  2575     1 
 2574  2576     1 
 2574  2591     1 
 2576  2577     1 
 2577  2578     1 
 2577  2579     1 
 2577  2593     1 
 2579  2580     1 
 2579  2589     1 
 2580  2581     1 
 2580  2582     1 
 2582  2583     1 
 2582  2584     1 
 2584  2585     1 
 2584  2588     1 
 2585  2586     1 
 2585  2587     1 
 2588  2589     1 
 2589  2590     1 
 2591  2592     1 
 2591  2593     1 
 2591  2596     1 
 2593  2594     1 
 2593  2595     1 
 2596  2597     1 
 2597  2598     1 
 2597  2599     1 
 2597  2600     1 
 2600  2601     1 
 2601  2602     1 
 2601  2603     1 
 2601  2604     1 
 2604  2605     1 
 2604  2606     1 
 2604  2621     1 
 2606  2607     1 
 2607  2608     1 
 2607  2609     1 
 2607  2623     1 
 2609  2610     1 
 2609  2619     1 
 2610  2611     1 
 2610  2612     1 
 2612  2613     1 
 2612  2614     1 
 2614  2615     1 
 2614  2618     1 
 2615  2616     1 
 2615  2617     1 
 2618  2619     1 
 2619  2620     1 
 2621  2622     1 
 2621  2623     1 
 2621  2626     1 
 2623  2624     1 
 2623  2625     1 
 2626  2627     1 
 2627  2628     1 
 2627  2629     1 
 2627  2630     1 
 2630  2631     1 
 2631  2632     1 
 2631  2633     1 
 2631  2634     1 
 2634  2635     1 
 2634  2636     1 
 2634  2653     1 
 2636  2637     1 
 2637  2638     1 
 2637  2639     1 
 2637  2655     1 
 2639  2640     1 
 2639  2652     1 
 2640  2641     1 
 2640  2642     1 
 2642  2643     1 
 2643  2644     1 
 2643  2652     1 
 2644  2645     1 
 2644  2648     1 
 2645  2646     1 
 2645  2647     1 
 2648  2649     1 
 2649  2650     1 
 2649  2651     1 
 2651  2652     1 
 2653  2654     1 
 2653  2655     1 
 2653  2658     1 
 2655  2656     1 
 2655  2657     1 
 2658  2659     1 
 2659  2660     1 
 2659  2661     1 
 2659  2662     1 
 2662  2663     1 
 2663  2664     1 
 2663  2665     1 
 2663  2666     1 
 2666  2667     1 
 2666  2668     1 
 2666  2686     1 
 2668  2669     1 
 2669  2670     1 
 2669  2671     1 
 2669  2688     1 
 2671  2672     1 
 2671  2685     1 
 2672  2673     1 
 2672  2674     1 
 2674  2675     1 
 2675  2676     1 
 2675  2685     1 
 2676  2677     1 
 2676  2678     1 
 2678  2679     1 
 2678  2680     1 
 2680  2681     1 
 2680  2684     1 
 2681  2682     1 
 2681  2683     1 
 2684  2685     1 
 2686  2687     1 
 2686  2688     1 
 2686  2691     1 
 2688  2689     1 
 2688  2690     1 
 2691  2692     1 
 2692  2693     1 
 2692  2694     1 
 2692  2695     1 
 2695  2696     1 
 2696  2697     1 
 2696  2698     1 
 2696  2699     1 
 2699  2700     1 
 2699  2701     1 
 2699  2719     1 
 2701  2702     1 
 2702  2703     1 
 2702  2704     1 
 2702  2721     1 
 2704  2705     1 
 2704  2718     1 
 2705  2706     1 
 2705  2707     1 
 2707  2708     1 
 2708  2709     1 
 2708  2718     1 
 2709  2710     1 
 2709  2711     1 
 2711  2712     1 
 2711  2713     1 
 2713  2714     1 
 2713  2717     1 
 2714  2715     1 
 2714  2716     1 
 2717  2718     1 
 2719  2720     1 
 2719  2721     1 
 2719  2724     1 
 2721  2722     1 
 2721  2723     1 
 2724  2725     1 
 2725  2726     1 
 2725  2727     1 
 2725  2728     1 
 2728  2729     1 
 2729  2730     1 
 2729  2731     1 
 2729  2732     1 
 2732  2733     1 
 2732  2734     1 
 2732  2751     1 
 2734  2735     1 
 2735  2736     1 
 2735  2737     1 
 2735  2753     1 
 2737  2738     1 
 2737  2749     1 
 2738  2739     1 
 2738  2740     1 
 2740  2741     1 
 2740  2745     1 
 2741  2742     1 
 2741  2743     1 
 2741  2744     1 
 2745  2746     1 
 2745  2747     1 
 2747  2748     1 
 2747  2749     1 
 2749  2750     1 
 2751  2752     1 
 2751  2753     1 
 2751  2756     1 
 2753  2754     1 
 2753  2755     1 
 2756  2757     1 
 2757  2758     1 
 2757  2759     1 
 2757  2760     1 
 2760  2761     1 
 2761  2762     1 
 2761  2763     1 
 2761  2764     1 
 2764  2765     1 
 2764  2766     1 
 2764  2784     1 
 2766  2767     1 
 2767  2768     1 
 2767  2769     1 
 2767  2786     1 
 2769  2770     1 
 2769  2783     1 
 2770  2771     1 
 2770  2772     1 
 2772  2773     1 
 2773  2774     1 
 2773  2783     1 
 2774  2775     1 
 2774  2776     1 
 2776  2777     1 
 2776  2778     1 
 2778  2779     1 
 2778  2782     1 
 2779  2780     1 
 2779  2781     1 
 2782  2783     1 
 2784  2785     1 
 2784  2786     1 
 2784  2789     1 
 2786  2787     1 
 2786  2788     1 
 2789  2790     1 
 2790  2791     1 
 2790  2792     1 
 2790  2793     1 
 2793  2794     1 
 2794  2795     1 
 2794  2796     1 
 2794  2797     1 
 2797  2798     1 
 2797  2799     1 
 2797  2814     1 
 2799  2800     1 
 2800  2801     1 
 2800  2802     1 
 2800  2816     1 
 2802  2803     1 
 2802  2812     1 
 2803  2804     1 
 2803  2805     1 
 2805  2806     1 
 2805  2807     1 
 2807  2808     1 
 2807  2811     1 
 2808  2809     1 
 2808  2810     1 
 2811  2812     1 
 2812  2813     1 
 2814  2815     1 
 2814  2816     1 
 2814  2819     1 
 2816  2817     1 
 2816  2818     1 
 2819  2820     1 
 2820  2821     1 
 2820  2822     1 
 2820  2823     1 
 2823  2824     1 
 2824  2825     1 
 2824  2826     1 
 2824  2827     1 
 2827  2828     1 
 2827  2829     1 
 2827  2847     1 
 2829  2830     1 
 2830  2831     1 
 2830  2832     1 
 2830  2849     1 
 2832  2833     1 
 2832  2846     1 
 2833  2834     1 
 2833  2835     1 
 2835  2836     1 
 2836  2837     1 
 2836  2846     1 
 2837  2838     1 
 2837  2839     1 
 2839  2840     1 
 2839  2841     1 
 2841  2842     1 
 2841  2845     1 
 2842  2843     1 
 2842  2844     1 
 2845  2846     1 
 2847  2848     1 
 2847  2849     1 
 2847  2852     1 
 2849  2850     1 
 2849  2851     1 
 2852  2853     1 
 2853  2854     1 
 2853  2855     1 
 2853  2856     1 
 2856  2857     1 
 2857  2858     1 
 2857  2859     1 
 2857  2860     1 
 2860  2861     1 
 2860  2862     1 
 2860  2880     1 
 2862  2863     1 
 2863  2864     1 
 2863  2865     1 
 2863  2882     1 
 2865  2866     1 
 2865  2879     1 
 2866  2867     1 
 2866  2868     1 
 2868  2869     1 
 2869  2870     1 
 2869  2879     1 
 2870  2871     1 
 2870  2872     1 
 2872  2873     1 
 2872  2874     1 
 2874  2875     1 
 2874  2878     1 
 2875  2876     1 
 2875  2877     1 
 2878  2879     1 
 2880  2881     1 
 2880  2882     1 
 2880  2885     1 
 2882  2883     1 
 2882  2884     1 
 2885  2886     1 
 2886  2887     1 
 2886  2888     1 
 2886  2889     1 
 2889  2890     1 
 2890  2891     1 
 2890  2892     1 
 2890  2893     1 
 2893  2894     1 
 2893  2895     1 
 2893  2913     1 
 2895  2896     1 
 2896  2897     1 
 2896  2898     1 
 2896  2915     1 
 2898  2899     1 
 2898  2912     1 
 2899  2900     1 
 2899  2901     1 
 2901  2902     1 
 2902  2903     1 
 2902  2912     1 
 2903  2904     1 
 2903  2905     1 
 2905  2906     1 
 2905  2907     1 
 2907  2908     1 
 2907  2911     1 
 2908  2909     1 
 2908  2910     1 
 2911  2912     1 
 2913  2914     1 
 2913  2915     1 
 2913  2918     1 
 2915  2916     1 
 2915  2917     1 
 2918  2919     1 
 2919  2920     1 
 2919  2921     1 
 2919  2922     1 
 2922  2923     1 
 2923  2924     1 
 2923  2925     1 
 2923  2926     1 
 2926  2927     1 
 2926  2928     1 
 2926  2945     1 
 2928  2929     1 
 2929  2930     1 
 2929  2931     1 
 2929  2947     1 
 2931  2932     1 
 2931  2944     1 
 2932  2933     1 
 2932  2934     1 
 2934  2935     1 
 2935  2936     1 
 2935  2944     1 
 2936  2937     1 
 2936  2940     1 
 2937  2938     1 
 2937  2939     1 
 2940  2941     1 
 2941  2942     1 
 2941  2943     1 
 2943  2944     1 
 2945  2946     1 
 2945  2947     1 
 2945  2950     1 
 2947  2948     1 
 2947  2949     1 
 2950  2951     1 
 2951  2952     1 
 2951  2953     1 
 2951  2954     1 
 2954  2955     1 
 2955  2956     1 
 2955  2957     1 
 2955  2958     1 
 2958  2959     1 
 2958  2960     1 
 2958  2978     1 
 2960  2961     1 
 2961  2962     1 
 2961  2963     1 
 2961  2980     1 
 2963  2964     1 
 2963  2977     1 
 2964  2965     1 
 2964  2966     1 
 2966  2967     1 
 2967  2968     1 
 2967  2977     1 
 2968  2969     1 
 2968  2970     1 
 2970  2971     1 
 2970  2972     1 
 2972  2973     1 
 2972  2976     1 
 2973  2974     1 
 2973  2975     1 
 2976  2977     1 
 2978  2979     1 
 2978  2980     1 
 2978  2983     1 
 2980  2981     1 
 2980  2982     1 
 2983  2984     1 
 2984  2985     1 
 2984  2986     1 
 2984  2987     1 
 2987  2988     1 
 2988  2989     1 
 2988  2990     1 
 2988  2991     1 
 2991  2992     1 
 2991  2993     1 
 2991  3010     1 
 2993  2994     1 
 2994  2995     1 
 2994  2996     1 
 2994  3012     1 
 2996  2997     1 
 2996  3009     1 
 2997  2998     1 
 2997  2999     1 
 2999  3000     1 
 3000  3001     1 
 3000  3009     1 
 3001  3002     1 
 3001  3005     1 
 3002  3003     1 
 3002  3004     1 
 3005  3006     1 
 3006  3007     1 
 3006  3008     1 
 3008  3009     1 
 3010  3011     1 
 3010  3012     1 
 3010  3015     1 
 3012  3013     1 
 3012  3014     1 
 3015  3016     1 
 3016  3017     1 
 3016  3018     1 
 3016  3019     1 
 3019  3020     1 
 3020  3021     1 
 3020  3022     1 
 3020  3023     1 
 3023  3024     1 
 3023  3025     1 
 3023  3043     1 
 3025  3026     1 
 3026  3027     1 
 3026  3028     1 
 3026  3045     1 
 3028  3029     1 
 3028  3042     1 
 3029  3030     1 
 3029  3031     1 
 3031  3032     1 
 3032  3033     1 
 3032  3042     1 
 3033  3034     1 
 3033  3035     1 
 3035  3036     1 
 3035  3037     1 
 3037  3038     1 
 3037  3041     1 
 3038  3039     1 
 3038  3040     1 
 3041  3042     1 
 3043  3044     1 
 3043  3045     1 
 3043  3048     1 
 3045  3046     1 
 3045  3047     1 
 3048  3049     1 
 3049  3050     1 
 3049  3051     1 
 3049  3052     1 
 3052  3053     1 
 3053  3054     1 
 3053  3055     1 
 3053  3056     1 
 3056  3057     1 
 3056  3058     1 
 3056  3075     1 
 3058  3059     1 
 3059  3060     1 
 3059  3061     1 
 3059  3077     1 
 3061  3062     1 
 3061  3074     1 
 3062  3063     1 
 3062  3064     1 
 3064  3065     1 
 3065  3066     1 
 3065  3074     1 
 3066  3067     1 
 3066  3070     1 
 3067  3068     1 
 3067  3069     1 
 3070  3071     1 
 3071  3072     1 
 3071  3073     1 
 3073  3074     1 
 3075  3076     1 
 3075  3077     1 
 3075  3080     1 
 3077  3078     1 
 3077  3079     1 
 3080  3081     1 
 3081  3082     1 
 3081  3083     1 
 3081  3084     1 
 3084  3085     1 
 3085  3086     1 
 3085  3087     1 
 3085  3088     1 
 3088  3089     1 
 3088  3090     1 
 3088  3108     1 
 3090  3091     1 
 3091  3092     1 
 3091  3093     1 
 3091  3110     1 
 3093  3094     1 
 3093  3107     1 
 3094  3095     1 
 3094  3096     1 
 3096  3097     1 
 3097  3098     1 
 3097  3107     1 
 3098  3099     1 
 3098  3100     1 
 3100  3101     1 
 3100  3102     1 
 3102  3103     1 
 3102  3106     1 
 3103  3104     1 
 3103  3105     1 
 3106  3107     1 
 3108  3109     1 
 3108  3110     1 
 3108  3113     1 
 3110  3111     1 
 3110  3112     1 
 3113  3114     1 
 3114  3115     1 
 3114  3116     1 
 3114  3117     1 
 3117  3118     1 
 3118  3119     1 
 3118  3120     1 
 3118  3121     1 
 3121  3122     1 
 3121  3123     1 
 3121  3141     1 
 3123  3124     1 
 3124  3125     1 
 3124  3126     1 
 3124  3143     1 
 3126  3127     1 
 3126  3140     1 
 3127  3128     1 
 3127  3129     1 
 3129  3130     1 
 3130  3131     1 
 3130  3140     1 
 3131  3132     1 
 3131  3133     1 
 3133  3134     1 
 3133  3135     1 
 3135  3136     1 
 3135  3139     1 
 3136  3137     1 
 3136  3138     1 
 3139  3140     1 
 3141  3142     1 
 3141  3143     1 
 3141  3146     1 
 3143  3144     1 
 3143  3145     1 
 3146  3147     1 
 3147  3148     1 
 3147  3149     1 
 3147  3150     1 
 3150  3151     1 
 3151  3152     1 
 3151  3153     1 
 3151  3154     1 
 3154  3155     1 
 3154  3156     1 
 3154  3173     1 
 3156  3157     1 
 3157  3158     1 
 3157  3159     1 
 3157  3175     1 
 3159  3160     1 
 3159  3171     1 
 3160  3161     1 
 3160  3162     1 
 3162  3163     1 
 3162  3167     1 
 3163  3164     1 
 3163  3165     1 
 3163  3166     1 
 3167  3168     1 
 3167  3169     1 
 3169  3170     1 
 3169  3171     1 
 3171  3172     1 
 3173  3174     1 
 3173  3175     1 
 3173  3178     1 
 3175  3176     1 
 3175  3177     1 
 3178  3179     1 
 3179  3180     1 
 3179  3181     1 
 3179  3182     1 
 3182  3183     1 
 3183  3184     1 
 3183  3185     1 
 3183  3186     1 
 3186  3187     1 
 3186  3188     1 
 3186  3205     1 
 3188  3189     1 
 3189  3190     1 
 3189  3191     1 
 3189  3207     1 
 3191  3192     1 
 3191  3204     1 
 3192  3193     1 
 3192  3194     1 
 3194  3195     1 
 3195  3196     1 
 3195  3204     1 
 3196  3197     1 
 3196  3200     1 
 3197  3198     1 
 3197  3199     1 
 3200  3201     1 
 3201  3202     1 
 3201  3203     1 
 3203  3204     1 
 3205  3206     1 
 3205  3207     1 
 3205  3210     1 
 3207  3208     1 
 3207  3209     1 
 3210  3211     1 
 3211  3212     1 
 3211  3213     1 
 3211  3214     1 
 3214  3215     1 
 3215  3216     1 
 3215  3217     1 
 3215  3218     1 
 3218  3219     1 
 3218  3220     1 
 3218  3235     1 
 3220  3221     1 
 3221  3222     1 
 3221  3223     1 
 3221  3237     1 
 3223  3224     1 
 3223  3233     1 
 3224  3225     1 
 3224  3226     1 
 3226  3227     1 
 3226  3228     1 
 3228  3229     1 
 3228  3232     1 
 3229  3230     1 
 3229  3231     1 
 3232  3233     1 
 3233  3234     1 
 3235  3236     1 
 3235  3237     1 
 3235  3240     1 
 3237  3238     1 
 3237  3239     1 
 3240  3241     1 
 3241  3242     1 
 3241  3243     1 
 3241  3244     1 
 3244  3245     1 
 3245  3246     1 
 3245  3247     1 
 3245  3248     1 
 3248  3249     1 
 3248  3250     1 
 3248  3268     1 
 3250  3251     1 
 3251  3252     1 
 3251  3253     1 
 3251  3270     1 
 3253  3254     1 
 3253  3267     1 
 3254  3255     1 
 3254  3256     1 
 3256  3257     1 
 3257  3258     1 
 3257  3267     1 
 3258  3259     1 
 3258  3260     1 
 3260  3261     1 
 3260  3262     1 
 3262  3263     1 
 3262  3266     1 
 3263  3264     1 
 3263  3265     1 
 3266  3267     1 
 3268  3269     1 
 3268  3270     1 
 3268  3273     1 
 3270  3271     1 
 3270  3272     1 
 3273  3274     1 
 3274  3275     1 
 3274  3276     1 
 3274  3277     1 
 3277  3278     1 
 3278  3279     1 
 3278  3280     1 
 3278  3281     1 
 3281  3282     1 
 3281  3283     1 
 3281  3301     1 
 3283  3284     1 
 3284  3285     1 
 3284  3286     1 
 3284  3303     1 
 3286  3287     1 
 3286  3300     1 
 3287  3288     1 
 3287  3289     1 
 3289  3290     1 
 3290  3291     1 
 3290  3300     1 
 3291  3292     1 
 3291  3293     1 
 3293  3294     1 
 3293  3295     1 
 3295  3296     1 
 3295  3299     1 
 3296  3297     1 
 3296  3298     1 
 3299  3300     1 
 3301  3302     1 
 3301  3303     1 
 3301  3306     1 
 3303  3304     1 
 3303  3305     1 
 3306  3307     1 
 3307  3308     1 
 3307  3309     1 
 3307  3310     1 
 3310  3311     1 
 3311  3312     1 
 3311  3313     1 
 3311  3314     1 
 3314  3315     1 
 3314  3316     1 
 3314  3333     1 
 3316  3317     1 
 3317  3318     1 
 3317  3319     1 
 3317  3335     1 
 3319  3320     1 
 3319  3332     1 
 3320  3321     1 
 3320  3322     1 
 3322  3323     1 
 3323  3324     1 
 3323  3332     1 
 3324  3325     1 
 3324  3328     1 
 3325  3326     1 
 3325  3327     1 
 3328  3329     1 
 3329  3330     1 
 3329  3331     1 
 3331  3332     1 
 3333  3334     1 
 3333  3335     1 
 3333  3338     1 
 3335  3336     1 
 3335  3337     1 
 3338  3339     1 
 3339  3340     1 
 3339  3341     1 
 3339  3342     1 
 3342  3343     1 
 3343  3344     1 
 3343  3345     1 
 3343  3346     1 
 3346  3347     1 
 3346  3348     1 
 3346  3366     1 
 3348  3349     1 
 3349  3350     1 
 3349  3351     1 
 3349  3368     1 
 3351  3352     1 
 3351  3365     1 
 3352  3353     1 
 3352  3354     1 
 3354  3355     1 
 3355  3356     1 
 3355  3365     1 
 3356  3357     1 
 3356  3358     1 
 3358  3359     1 
 3358  3360     1 
 3360  3361     1 
 3360  3364     1 
 3361  3362     1 
 3361  3363     1 
 3364  3365     1 
 3366  3367     1 
 3366  3368     1 
 3366  3371     1 
 3368  3369     1 
 3368  3370     1 
 3371  3372     1 
 3372  3373     1 
 3372  3374     1 
 3372  3375     1 
 3375  3376     1 
 3376  3377     1 
 3376  3378     1 
 3376  3379     1 
 3379  3380     1 
 3379  3381     1 
 3379  3396     1 
 3381  3382     1 
 3382  3383     1 
 3382  3384     1 
 3382  3398     1 
 3384  3385     1 
 3384  3394     1 
 3385  3386     1 
 3385  3387     1 
 3387  3388     1 
 3387  3389     1 
 3389  3390     1 
 3389  3393     1 
 3390  3391     1 
 3390  3392     1 
 3393  3394     1 
 3394  3395     1 
 3396  3397     1 
 3396  3398     1 
 3396  3401     1 
 3398  3399     1 
 3398  3400     1 
 3401  3402     1 
 3402  3403     1 
 3402  3404     1 
 3402  3405     1 
 3405  3406     1 
 3406  3407     1 
 3406  3408     1 
 3406  3409     1 
 3409  3410     1 
 3409  3411     1 
 3409  3429     1 
 3411  3412     1 
 3412  3413     1 
 3412  3414     1 
 3412  3431     1 
 3414  3415     1 
 3414  3428     1 
 3415  3416     1 
 3415  3417     1 
 3417  3418     1 
 3418  3419     1 
 3418  3428     1 
 3419  3420     1 
 3419  3421     1 
 3421  3422     1 
 3421  3423     1 
 3423  3424     1 
 3423  3427     1 
 3424  3425     1 
 3424  3426     1 
 3427  3428     1 
 3429  3430     1 
 3429  3431     1 
 3429  3434     1 
 3431  3432     1 
 3431  3433     1 
 3434  3435     1 
 3435  3436     1 
 3435  3437     1 
 3435  3438     1 
 3438  3439     1 
 3439  3440     1 
 3439  3441     1 
 3439  3442     1 
 3442  3443     1 
 3442  3444     1 
 3442  3462     1 
 3444  3445     1 
 3445  3446     1 
 3445  3447     1 
 3445  3464     1 
 3447  3448     1 
 3447  3461     1 
 3448  3449     1 
 3448  3450     1 
 3450  3451     1 
 3451  3452     1 
 3451  3461     1 
 3452  3453     1 
 3452  3454     1 
 3454  3455     1 
 3454  3456     1 
 3456  3457     1 
 3456  3460     1 
 3457  3458     1 
 3457  3459     1 
 3460  3461     1 
 3462  3463     1 
 3462  3464     1 
 3462  3467     1 
 3464  3465     1 
 3464  3466     1 
 3467  3468     1 
 3468  3469     1 
 3468  3470     1 
 3468  3471     1 
 3471  3472     1 
 3472  3473     1 
 3472  3474     1 
 3472  3475     1 
 3475  3476     1 
 3475  3477     1 
 3475  3494     1 
 3477  3478     1 
 3478  3479     1 
 3478  3480     1 
 3478  3496     1 
 3480  3481     1 
 3480  3493     1 
 3481  3482     1 
 3481  3483     1 
 3483  3484     1 
 3484  3485     1 
 3484  3493     1 
 3485  3486     1 
 3485  3489     1 
 3486  3487     1 
 3486  3488     1 
 3489  3490     1 
 3490  3491     1 
 3490  3492     1 
 3492  3493     1 
 3494  3495     1 
 3494  3496     1 
 3494  3499     1 
 3496  3497     1 
 3496  3498     1 
 3499  3500     1 
 3500  3501     1 
 3500  3502     1 
 3500  3503     1 
 3503  3504     1 
 3504  3505     1 
 3504  3506     1 
 3504  3507     1 
 3507  3508     1 
 3507  3509     1 
 3507  3524     1 
 3509  3510     1 
 3510  3511     1 
 3510  3512     1 
 3510  3526     1 
 3512  3513     1 
 3512  3522     1 
 3513  3514     1 
 3513  3515     1 
 3515  3516     1 
 3515  3517     1 
 3517  3518     1 
 3517  3521     1 
 3518  3519     1 
 3518  3520     1 
 3521  3522     1 
 3522  3523     1 
 3524  3525     1 
 3524  3526     1 
 3524  3529     1 
 3526  3527     1 
 3526  3528     1 
 3529  3530     1 
 3530  3531     1 
 3530  3532     1 
 3530  3533     1 
 3533  3534     1 
 3534  3535     1 
 3534  3536     1 
 3534  3537     1 
 3537  3538     1 
 3537  3539     1 
 3537  3554     1 
 3539  3540     1 
 3540  3541     1 
 3540  3542     1 
 3540  3556     1 
 3542  3543     1 
 3542  3552     1 
 3543  3544     1 
 3543  3545     1 
 3545  3546     1 
 3545  3547     1 
 3547  3548     1 
 3547  3551     1 
 3548  3549     1 
 3548  3550     1 
 3551  3552     1 
 3552  3553     1 
 3554  3555     1 
 3554  3556     1 
 3554  3559     1 
 3556  3557     1 
 3556  3558     1 
 3559  3560     1 
 3560  3561     1 
 3560  3562     1 
 3560  3563     1 
 3563  3564     1 
 3564  3565     1 
 3564  3566     1 
 3564  3567     1 
 3567  3568     1 
 3567  3569     1 
 3567  3586     1 
 3569  3570     1 
 3570  3571     1 
 3570  3572     1 
 3570  3588     1 
 3572  3573     1 
 3572  3585     1 
 3573  3574     1 
 3573  3575     1 
 3575  3576     1 
 3576  3577     1 
 3576  3585     1 
 3577  3578     1 
 3577  3581     1 
 3578  3579     1 
 3578  3580     1 
 3581  3582     1 
 3582  3583     1 
 3582  3584     1 
 3584  3585     1 
 3586  3587     1 
 3586  3588     1 
 3586  3591     1 
 3588  3589     1 
 3588  3590     1 
 3591  3592     1 
 3592  3593     1 
 3592  3594     1 
 3592  3595     1 
 3595  3596     1 
 3596  3597     1 
 3596  3598     1 
 3596  3599     1 
 3599  3600     1 
 3599  3601     1 
 3599  3616     1 
 3601  3602     1 
 3602  3603     1 
 3602  3604     1 
 3602  3618     1 
 3604  3605     1 
 3604  3614     1 
 3605  3606     1 
 3605  3607     1 
 3607  3608     1 
 3607  3609     1 
 3609  3610     1 
 3609  3613     1 
 3610  3611     1 
 3610  3612     1 
 3613  3614     1 
 3614  3615     1 
 3616  3617     1 
 3616  3618     1 
 3616  3621     1 
 3618  3619     1 
 3618  3620     1 
 3621  3622     1 
 3622  3623     1 
 3622  3624     1 
 3622  3625     1 
 3625  3626     1 
 3626  3627     1 
 3626  3628     1 
 3626  3629     1 
 3629  3630     1 
 3629  3631     1 
 3629  3646     1 
 3631  3632     1 
 3632  3633     1 
 3632  3634     1 
 3632  3648     1 
 3634  3635     1 
 3634  3644     1 
 3635  3636     1 
 3635  3637     1 
 3637  3638     1 
 3637  3639     1 
 3639  3640     1 
 3639  3643     1 
 3640  3641     1 
 3640  3642     1 
 3643  3644     1 
 3644  3645     1 
 3646  3647     1 
 3646  3648     1 
 3646  3651     1 
 3648  3649     1 
 3648  3650     1 
 3651  3652     1 
 3652  3653     1 
 3652  3654     1 
 3652  3655     1 
 3655  3656     1 
 3656  3657     1 
 3656  3658     1 
 3656  3659     1 
 3659  3660     1 
 3659  3661     1 
 3659  3676     1 
 3661  3662     1 
 3662  3663     1 
 3662  3664     1 
 3662  3678     1 
 3664  3665     1 
 3664  3674     1 
 3665  3666     1 
 3665  3667     1 
 3667  3668     1 
 3667  3669     1 
 3669  3670     1 
 3669  3673     1 
 3670  3671     1 
 3670  3672     1 
 3673  3674     1 
 3674  3675     1 
 3676  3677     1 
 3676  3678     1 
 3676  3681     1 
 3678  3679     1 
 3678  3680     1 
 3681  3682     1 
 3682  3683     1 
 3682  3684     1 
 3682  3685     1 
 3685  3686     1 
 3686  3687     1 
 3686  3688     1 
 3686  3689     1 
 3689  3690     1 
 3689  3691     1 
 3689  3706     1 
 3691  3692     1 
 3692  3693     1 
 3692  3694     1 
 3692  3708     1 
 3694  3695     1 
 3694  3704     1 
 3695  3696     1 
 3695  3697     1 
 3697  3698     1 
 3697  3699     1 
 3699  3700     1 
 3699  3703     1 
 3700  3701     1 
 3700  3702     1 
 3703  3704     1 
 3704  3705     1 
 3706  3707     1 
 3706  3708     1 
 3706  3711     1 
 3708  3709     1 
 3708  3710     1 
 3711  3712     1 
 3712  3713     1 
 3712  3714     1 
 3712  3715     1 
 3715  3716     1 
 3716  3717     1 
 3716  3718     1 
 3716  3719     1 
 3719  3720     1 
 3719  3721     1 
 3719  3738     1 
 3721  3722     1 
 3722  3723     1 
 3722  3724     1 
 3722  3740     1 
 3724  3725     1 
 3724  3736     1 
 3725  3726     1 
 3725  3727     1 
 3727  3728     1 
 3727  3732     1 
 3728  3729     1 
 3728  3730     1 
 3728  3731     1 
 3732  3733     1 
 3732  3734     1 
 3734  3735     1 
 3734  3736     1 
 3736  3737     1 
 3738  3739     1 
 3738  3740     1 
 3738  3743     1 
 3740  3741     1 
 3740  3742     1 
 3743  3744     1 
 3744  3745     1 
 3744  3746     1 
 3744  3747     1 
 3747  3748     1 
 3748  3749     1 
 3748  3750     1 
 3748  3751     1 
 3751  3752     1 
 3751  3753     1 
 3751  3768     1 
 3753  3754     1 
 3754  3755     1 
 3754  3756     1 
 3754  3770     1 
 3756  3757     1 
 3756  3766     1 
 3757  3758     1 
 3757  3759     1 
 3759  3760     1 
 3759  3761     1 
 3761  3762     1 
 3761  3765     1 
 3762  3763     1 
 3762  3764     1 
 3765  3766     1 
 3766  3767     1 
 3768  3769     1 
 3768  3770     1 
 3768  3773     1 
 3770  3771     1 
 3770  3772     1 
 3773  3774     1 
 3774  3775     1 
 3774  3776     1 
 3774  3777     1 
 3777  3778     1 
 3778  3779     1 
 3778  3780     1 
 3778  3781     1 
 3781  3782     1 
 3781  3783     1 
 3781  3798     1 
 3783  3784     1 
 3784  3785     1 
 3784  3786     1 
 3784  3800     1 
 3786  3787     1 
 3786  3796     1 
 3787  3788     1 
 3787  3789     1 
 3789  3790     1 
 3789  3791     1 
 3791  3792     1 
 3791  3795     1 
 3792  3793     1 
 3792  3794     1 
 3795  3796     1 
 3796  3797     1 
 3798  3799     1 
 3798  3800     1 
 3798  3803     1 
 3800  3801     1 
 3800  3802     1 
 3803  3804     1 
 3804  3805     1 
 3804  3806     1 
 3804  3807     1 
 3807  3808     1 
 3808  3809     1 
 3808  3810     1 
 3808  3811     1 
 3811  3812     1 
 3811  3813     1 
 3811  3830     1 
 3813  3814     1 
 3814  3815     1 
 3814  3816     1 
 3814  3832     1 
 3816  3817     1 
 3816  3828     1 
 3817  3818     1 
 3817  3819     1 
 3819  3820     1 
 3819  3824     1 
 3820  3821     1 
 3820  3822     1 
 3820  3823     1 
 3824  3825     1 
 3824  3826     1 
 3826  3827     1 
 3826  3828     1 
 3828  3829     1 
 3830  3831     1 
 3830  3832     1 
 3830  3835     1 
 3832  3833     1 
 3832  3834     1 
 3835  3836     1 
 3836  3837     1 
 3836  3838     1 
 3836  3839     1 
 3839  3840     1 
 3840  3841     1 
 3840  3842     1 
 3840  3843     1 
 3843  3844     1 
 3843  3845     1 
 3843  3863     1 
 3845  3846     1 
 3846  3847     1 
 3846  3848     1 
 3846  3865     1 
 3848  3849     1 
 3848  3862     1 
 3849  3850     1 
 3849  3851     1 
 3851  3852     1 
 3852  3853     1 
 3852  3862     1 
 3853  3854     1 
 3853  3855     1 
 3855  3856     1 
 3855  3857     1 
 3857  3858     1 
 3857  3861     1 
 3858  3859     1 
 3858  3860     1 
 3861  3862     1 
 3863  3864     1 
 3863  3865     1 
 3863  3868     1 
 3865  3866     1 
 3865  3867     1 
 3868  3869     1 
 3869  3870     1 
 3869  3871     1 
 3869  3872     1 
 3872  3873     1 
 3873  3874     1 
 3873  3875     1 
 3873  3876     1 
 3876  3877     1 
 3876  3878     1 
 3876  3896     1 
 3878  3879     1 
 3879  3880     1 
 3879  3881     1 
 3879  3898     1 
 3881  3882     1 
 3881  3895     1 
 3882  3883     1 
 3882  3884     1 
 3884  3885     1 
 3885  3886     1 
 3885  3895     1 
 3886  3887     1 
 3886  3888     1 
 3888  3889     1 
 3888  3890     1 
 3890  3891     1 
 3890  3894     1 
 3891  3892     1 
 3891  3893     1 
 3894  3895     1 
 3896  3897     1 
 3896  3898     1 
 3896  3901     1 
 3898  3899     1 
 3898  3900     1 
 3901  3902     1 
 3902  3903     1 
 3902  3904     1 
 3902  3905     1 
 3905  3906     1 
 3906  3907     1 
 3906  3908     1 
 3906  3909     1 
 3909  3910     1 
 3909  3911     1 
 3909  3929     1 
 3911  3912     1 
 3912  3913     1 
 3912  3914     1 
 3912  3931     1 
 3914  3915     1 
 3914  3928     1 
 3915  3916     1 
 3915  3917     1 
 3917  3918     1 
 3918  3919     1 
 3918  3928     1 
 3919  3920     1 
 3919  3921     1 
 3921  3922     1 
 3921  3923     1 
 3923  3924     1 
 3923  3927     1 
 3924  3925     1 
 3924  3926     1 
 3927  3928     1 
 3929  3930     1 
 3929  3931     1 
 3929  3934     1 
 3931  3932     1 
 3931  3933     1 
 3934  3935     1 
 3935  3936     1 
 3935  3937     1 
 3935  3938     1 
 3938  3939     1 
 3939  3940     1 
 3939  3941     1 
 3939  3942     1 
 3942  3943     1 
 3942  3944     1 
 3942  3959     1 
 3944  3945     1 
 3945  3946     1 
 3945  3947     1 
 3945  3961     1 
 3947  3948     1 
 3947  3957     1 
 3948  3949     1 
 3948  3950     1 
 3950  3951     1 
 3950  3952     1 
 3952  3953     1 
 3952  3956     1 
 3953  3954     1 
 3953  3955     1 
 3956  3957     1 
 3957  3958     1 
 3959  3960     1 
 3959  3961     1 
 3959  3964     1 
 3961  3962     1 
 3961  3963     1 
 3964  3965     1 
 3965  3966     1 
 3965  3967     1 
 3965  3968     1 
 3968  3969     1 
 3969  3970     1 
 3969  3971     1 
 3969  3972     1 
 3972  3973     1 
 3972  3974     1 
 3972  3989     1 
 3974  3975     1 
 3975  3976     1 
 3975  3977     1 
 3975  3991     1 
 3977  3978     1 
 3977  3987     1 
 3978  3979     1 
 3978  3980     1 
 3980  3981     1 
 3980  3982     1 
 3982  3983     1 
 3982  3986     1 
 3983  3984     1 
 3983  3985     1 
 3986  3987     1 
 3987  3988     1 
 3989  3990     1 
 3989  3991     1 
 3989  3994     1 
 3991  3992     1 
 3991  3993     1 
 3994  3995     1 
 3995  3996     1 
 3995  3997     1 
 3995  3998     1 
 3998  3999     1 
 3999  4000     1 
 3999  4001     1 
 3999  4002     1 
 4002  4003     1 
 4002  4004     1 
 4002  4019     1 
 4004  4005     1 
 4005  4006     1 
 4005  4007     1 
 4005  4021     1 
 4007  4008     1 
 4007  4017     1 
 4008  4009     1 
 4008  4010     1 
 4010  4011     1 
 4010  4012     1 
 4012  4013     1 
 4012  4016     1 
 4013  4014     1 
 4013  4015     1 
 4016  4017     1 
 4017  4018     1 
 4019  4020     1 
 4019  4021     1 
 4019  4024     1 
 4021  4022     1 
 4021  4023     1 
 4024  4025     1 
 4025  4026     1 
 4025  4027     1 
 4025  4028     1 
 4028  4029     1 
 4029  4030     1 
 4029  4031     1 
 4029  4032     1 
 4032  4033     1 
 4032  4034     1 
 4032  4049     1 
 4034  4035     1 
 4035  4036     1 
 4035  4037     1 
 4035  4051     1 
 4037  4038     1 
 4037  4047     1 
 4038  4039     1 
 4038  4040     1 
 4040  4041     1 
 4040  4042     1 
 4042  4043     1 
 4042  4046     1 
 4043  4044     1 
 4043  4045     1 
 4046  4047     1 
 4047  4048     1 
 4049  4050     1 
 4049  4051     1 
 4049  4054     1 
 4051  4052     1 
 4051  4053     1 
 4054  4055     1 
 4055  4056     1 
 4055  4057     1 
 4055  4058     1 
 4058  4059     1 
 4059  4060     1 
 4059  4061     1 
 4059  4062     1 
 4062  4063     1 
 4062  4064     1 
 4062  4081     1 
 4064  4065     1 
 4065  4066     1 
 4065  4067     1 
 4065  4083     1 
 4067  4068     1 
 4067  4079     1 
 4068  4069     1 
 4068  4070     1 
 4070  4071     1 
 4070  4075     1 
 4071  4072     1 
 4071  4073     1 
 4071  4074     1 
 4075  4076     1 
 4075  4077     1 
 4077  4078     1 
 4077  4079     1 
 4079  4080     1 
 4081  4082     1 
 4081  4083     1 
 4081  4086     1 
 4083  4084     1 
 4083  4085     1 
 4086  4087     1 
 4087  4088     1 
 4087  4089     1 
 4087  4090     1 
 4090  4091     1 
 4091  4092     1 
 4091  4093     1 
 4091  4094     1 
 4094  4095     1 
 4094  4096     1 
 4094  4114     1 
 4096  4097     1 
 4097  4098     1 
 4097  4099     1 
 4097  4116     1 
 4099  4100     1 
 4099  4113     1 
 4100  4101     1 
 4100  4102     1 
 4102  4103     1 
 4103  4104     1 
 4103  4113     1 
 4104  4105     1 
 4104  4106     1 
 4106  4107     1 
 4106  4108     1 
 4108  4109     1 
 4108  4112     1 
 4109  4110     1 
 4109  4111     1 
 4112  4113     1 
 4114  4115     1 
 4114  4116     1 
 4114  4119     1 
 4116  4117     1 
 4116  4118     1 
 4119  4120     1 
 4120  4121     1 
 4120  4122     1 
 4120  4123     1 
 4123  4124     1 
 4124  4125     1 
 4124  4126     1 
 4124  4127     1 
 4127  4128     1 
 4127  4129     1 
 4127  4144     1 
 4129  4130     1 
 4130  4131     1 
 4130  4132     1 
 4130  4146     1 
 4132  4133     1 
 4132  4142     1 
 4133  4134     1 
 4133  4135     1 
 4135  4136     1 
 4135  4137     1 
 4137  4138     1 
 4137  4141     1 
 4138  4139     1 
 4138  4140     1 
 4141  4142     1 
 4142  4143     1 
 4144  4145     1 
 4144  4146     1 
 4144  4149     1 
 4146  4147     1 
 4146  4148     1 
 4149  4150     1 
 4150  4151     1 
 4150  4152     1 
 4150  4153     1 
 4153  4154     1 
 4154  4155     1 
 4154  4156     1 
 4154  4157     1 
 4157  4158     1 
 4157  4159     1 
 4157  4174     1 
 4159  4160     1 
 4160  4161     1 
 4160  4162     1 
 4160  4176     1 
 4162  4163     1 
 4162  4172     1 
 4163  4164     1 
 4163  4165     1 
 4165  4166     1 
 4165  4167     1 
 4167  4168     1 
 4167  4171     1 
 4168  4169     1 
 4168  4170     1 
 4171  4172     1 
 4172  4173     1 
 4174  4175     1 
 4174  4176     1 
 4174  4179     1 
 4176  4177     1 
 4176  4178     1 
 4179  4180     1 
 4180  4181     1 
 4180  4182     1 
 4180  4183     1 
 4183  4184     1 
 4184  4185     1 
 4184  4186     1 
 4184  4187     1 
 4187  4188     1 
 4187  4189     1 
 4187  4204     1 
 4189  4190     1 
 4190  4191     1 
 4190  4192     1 
 4190  4206     1 
 4192  4193     1 
 4192  4202     1 
 4193  4194     1 
 4193  4195     1 
 4195  4196     1 
 4195  4197     1 
 4197  4198     1 
 4197  4201     1 
 4198  4199     1 
 4198  4200     1 
 4201  4202     1 
 4202  4203     1 
 4204  4205     1 
 4204  4206     1 
 4204  4209     1 
 4206  4207     1 
 4206  4208     1 
 4209  4210     1 
 4210  4211     1 
 4210  4212     1 
 4210  4213     1 
 4213  4214     1 
 4214  4215     1 
 4214  4216     1 
 4214  4217     1 
 4217  4218     1 
 4217  4219     1 
 4217  4237     1 
 4219  4220     1 
 4220  4221     1 
 4220  4222     1 
 4220  4239     1 
 4222  4223     1 
 4222  4236     1 
 4223  4224     1 
 4223  4225     1 
 4225  4226     1 
 4226  4227     1 
 4226  4236     1 
 4227  4228     1 
 4227  4229     1 
 4229  4230     1 
 4229  4231     1 
 4231  4232     1 
 4231  4235     1 
 4232  4233     1 
 4232  4234     1 
 4235  4236     1 
 4237  4238     1 
 4237  4239     1 
 4237  4242     1 
 4239  4240     1 
 4239  4241     1 
 4242  4243     1 
 4243  4244     1 
 4243  4245     1 
 4243  4246     1 
 4246  4247     1 
 4247  4248     1 
 4247  4249     1 
 4247  4250     1 
 4250  4251     1 
 4250  4252     1 
 4250  4270     1 
 4252  4253     1 
 4253  4254     1 
 4253  4255     1 
 4253  4272     1 
 4255  4256     1 
 4255  4269     1 
 4256  4257     1 
 4256  4258     1 
 4258  4259     1 
 4259  4260     1 
 4259  4269     1 
 4260  4261     1 
 4260  4262     1 
 4262  4263     1 
 4262  4264     1 
 4264  4265     1 
 4264  4268     1 
 4265  4266     1 
 4265  4267     1 
 4268  4269     1 
 4270  4271     1 
 4270  4272     1 
 4270  4275     1 
 4272  4273     1 
 4272  4274     1 
 4275  4276     1 
 4276  4277     1 
 4276  4278     1 
 4276  4279     1 
 4279  4280     1 
 4280  4281     1 
 4280  4282     1 
 4280  4283     1 
 4283  4284     1 
 4283  4285     1 
 4283  4303     1 
 4285  4286     1 
 4286  4287     1 
 4286  4288     1 
 4286  4305     1 
 4288  4289     1 
 4288  4302     1 
 4289  4290     1 
 4289  4291     1 
 4291  4292     1 
 4292  4293     1 
 4292  4302     1 
 4293  4294     1 
 4293  4295     1 
 4295  4296     1 
 4295  4297     1 
 4297  4298     1 
 4297  4301     1 
 4298  4299     1 
 4298  4300     1 
 4301  4302     1 
 4303  4304     1 
 4303  4305     1 
 4303  4308     1 
 4305  4306     1 
 4305  4307     1 
 4308  4309     1 
 4309  4310     1 
 4309  4311     1 
 4309  4312     1 
 4312  4313     1 
 4313  4314     1 
 4313  4315     1 
 4313  4316     1 
 4316  4317     1 
 4316  4318     1 
 4316  4335     1 
 4318  4319     1 
 4319  4320     1 
 4319  4321     1 
 4319  4337     1 
 4321  4322     1 
 4321  4333     1 
 4322  4323     1 
 4322  4324     1 
 4324  4325     1 
 4324  4329     1 
 4325  4326     1 
 4325  4327     1 
 4325  4328     1 
 4329  4330     1 
 4329  4331     1 
 4331  4332     1 
 4331  4333     1 
 4333  4334     1 
 4335  4336     1 
 4335  4337     1 
 4335  4340     1 
 4337  4338     1 
 4337  4339     1 
 4340  4341     1 
 4341  4342     1 
 4341  4343     1 
 4341  4344     1 
 4344  4345     1 
 4345  4346     1 
 4345  4347     1 
 4345  4348     1 
 4348  4349     1 
 4348  4350     1 
 4348  4365     1 
 4350  4351     1 
 4351  4352     1 
 4351  4353     1 
 4351  4367     1 
 4353  4354     1 
 4353  4363     1 
 4354  4355     1 
 4354  4356     1 
 4356  4357     1 
 4356  4358     1 
 4358  4359     1 
 4358  4362     1 
 4359  4360     1 
 4359  4361     1 
 4362  4363     1 
 4363  4364     1 
 4365  4366     1 
 4365  4367     1 
 4365  4370     1 
 4367  4368     1 
 4367  4369     1 
 4370  4371     1 
 4371  4372     1 
 4371  4373     1 
 4371  4374     1 
 4374  4375     1 
 4375  4376     1 
 4375  4377     1 
 4375  4378     1 
 4378  4379     1 
 4378  4380     1 
 4378  4395     1 
 4380  4381     1 
 4381  4382     1 
 4381  4383     1 
 4381  4397     1 
 4383  4384     1 
 4383  4393     1 
 4384  4385     1 
 4384  4386     1 
 4386  4387     1 
 4386  4388     1 
 4388  4389     1 
 4388  4392     1 
 4389  4390     1 
 4389  4391     1 
 4392  4393     1 
 4393  4394     1 
 4395  4396     1 
 4395  4397     1 
 4395  4400     1 
 4397  4398     1 
 4397  4399     1 
 4400  4401     1 
 4401  4402     1 
 4401  4403     1 
 4401  4404     1 
 4404  4405     1 
 4405  4406     1 
 4405  4407     1 
 4405  4408     1 
 4408  4409     1 
 4408  4410     1 
 4408  4425     1 
 4410  4411     1 
 4411  4412     1 
 4411  4413     1 
 4411  4427     1 
 4413  4414     1 
 4413  4423     1 
 4414  4415     1 
 4414  4416     1 
 4416  4417     1 
 4416  4418     1 
 4418  4419     1 
 4418  4422     1 
 4419  4420     1 
 4419  4421     1 
 4422  4423     1 
 4423  4424     1 
 4425  4426     1 
 4425  4427     1 
 4425  4430     1 
 4427  4428     1 
 4427  4429     1 
 4430  4431     1 
 4431  4432     1 
 4431  4433     1 
 4431  4434     1 
 4434  4435     1 
 4435  4436     1 
 4435  4437     1 
 4435  4438     1 
 4438  4439     1 
 4438  4440     1 
 4438  4458     1 
 4440  4441     1 
 4441  4442     1 
 4441  4443     1 
 4441  4460     1 
 4443  4444     1 
 4443  4457     1 
 4444  4445     1 
 4444  4446     1 
 4446  4447     1 
 4447  4448     1 
 4447  4457     1 
 4448  4449     1 
 4448  4450     1 
 4450  4451     1 
 4450  4452     1 
 4452  4453     1 
 4452  4456     1 
 4453  4454     1 
 4453  4455     1 
 4456  4457     1 
 4458  4459     1 
 4458  4460     1 
 4458  4463     1 
 4460  4461     1 
 4460  4462     1 
 4463  4464     1 
 4464  4465     1 
 4464  4466     1 
 4464  4467     1 
 4467  4468     1 
 4468  4469     1 
 4468  4470     1 
 4468  4471     1 
 4471  4472     1 
 4471  4473     1 
 4471  4490     1 
 4473  4474     1 
 4474  4475     1 
 4474  4476     1 
 4474  4492     1 
 4476  4477     1 
 4476  4489     1 
 4477  4478     1 
 4477  4479     1 
 4479  4480     1 
 4480  4481     1 
 4480  4489     1 
 4481  4482     1 
 4481  4485     1 
 4482  4483     1 
 4482  4484     1 
 4485  4486     1 
 4486  4487     1 
 4486  4488     1 
 4488  4489     1 
 4490  4491     1 
 4490  4492     1 
 4490  4495     1 
 4492  4493     1 
 4492  4494     1 
 4495  4496     1 
 4496  4497     1 
 4496  4498     1 
 4496  4499     1 
 4499  4500     1 
 4500  4501     1 
 4500  4502     1 
 4500  4503     1 
 4503  4504     1 
 4503  4505     1 
 4503  4520     1 
 4505  4506     1 
 4506  4507     1 
 4506  4508     1 
 4506  4522     1 
 4508  4509     1 
 4508  4518     1 
 4509  4510     1 
 4509  4511     1 
 4511  4512     1 
 4511  4513     1 
 4513  4514     1 
 4513  4517     1 
 4514  4515     1 
 4514  4516     1 
 4517  4518     1 
 4518  4519     1 
 4520  4521     1 
 4520  4522     1 
 4520  4525     1 
 4522  4523     1 
 4522  4524     1 
 4525  4526     1 
 4526  4527     1 
 4526  4528     1 
 4526  4529     1 
 4529  4530     1 
 4530  4531     1 
 4530  4532     1 
 4530  4533     1 
 4533  4534     1 
 4533  4535     1 
 4533  4550     1 
 4535  4536     1 
 4536  4537     1 
 4536  4538     1 
 4536  4552     1 
 4538  4539     1 
 4538  4548     1 
 4539  4540     1 
 4539  4541     1 
 4541  4542     1 
 4541  4543     1 
 4543  4544     1 
 4543  4547     1 
 4544  4545     1 
 4544  4546     1 
 4547  4548     1 
 4548  4549     1 
 4550  4551     1 
 4550  4552     1 
 4550  4555     1 
 4552  4553     1 
 4552  4554     1 
 4555  4556     1 
 4556  4557     1 
 4556  4558     1 
 4556  4559     1 
 4559  4560     1 
 4560  4561     1 
 4560  4562     1 
 4560  4563     1 
 4563  4564     1 
 4563  4565     1 
 4563  4580     1 
 4565  4566     1 
 4566  4567     1 
 4566  4568     1 
 4566  4582     1 
 4568  4569     1 
 4568  4578     1 
 4569  4570     1 
 4569  4571     1 
 4571  4572     1 
 4571  4573     1 
 4573  4574     1 
 4573  4577     1 
 4574  4575     1 
 4574  4576     1 
 4577  4578     1 
 4578  4579     1 
 4580  4581     1 
 4580  4582     1 
 4580  4585     1 
 4582  4583     1 
 4582  4584     1 
 4585  4586     1 
 4586  4587     1 
 4586  4588     1 
 4586  4589     1 
 4589  4590     1 
 4590  4591     1 
 4590  4592     1 
 4590  4593     1 
 4593  4594     1 
 4593  4595     1 
 4593  4612     1 
 4595  4596     1 
 4596  4597     1 
 4596  4598     1 
 4596  4614     1 
 4598  4599     1 
 4598  4610     1 
 4599  4600     1 
 4599  4601     1 
 4601  4602     1 
 4601  4606     1 
 4602  4603     1 
 4602  4604     1 
 4602  4605     1 
 4606  4607     1 
 4606  4608     1 
 4608  4609     1 
 4608  4610     1 
 4610  4611     1 
 4612  4613     1 
 4612  4614     1 
 4612  4617     1 
 4614  4615     1 
 4614  4616     1 
 4617  4618     1 

[ pairs ]
;  ai    aj funct            c0            c1            c2            c3
    1     7     1 
    1     8     1 
    1    23     1 
    2     4     1 
    2     5     1 
    2     6     1 
    3     9     1 
    3    24     1 
    3    25     1 
    3    28     1 
    4     7     1 
    4     8     1 
    4    23     1 
    5     7     1 
    5     8     1 
    5    23     1 
    6    10     1 
    6    11     1 
    6    26     1 
    6    27     1 
    6    29     1 
    7     9     1 
    7    24     1 
    7    25     1 
    7    28     1 
    8    12     1 
    8    21     1 
    8    24     1 
    8    26     1 
    8    27     1 
    8    28     1 
    9    13     1 
    9    14     1 
    9    20     1 
    9    22     1 
    9    24     1 
    9    28     1 
   10    12     1 
   10    21     1 
   10    23     1 
   10    26     1 
   10    27     1 
   11    15     1 
   11    16     1 
   11    23     1 
   11    26     1 
   11    27     1 
   12    17     1 
   12    20     1 
   12    22     1 
   12    25     1 
   13    15     1 
   13    16     1 
   13    21     1 
   14    18     1 
   14    19     1 
   14    21     1 
   15    17     1 
   15    20     1 
   16    22     1 
   17    21     1 
   18    20     1 
   19    20     1 
   21    25     1 
   23    30     1 
   23    31     1 
   23    32     1 
   24    26     1 
   24    27     1 
   24    29     1 
   25    29     1 
   26    28     1 
   27    28     1 
   28    33     1 
   29    34     1 
   29    35     1 
   29    36     1 
   30    33     1 
   31    33     1 
   32    37     1 
   32    38     1 
   32    53     1 
   33    39     1 
   33    54     1 
   33    55     1 
   33    58     1 
   34    37     1 
   34    38     1 
   34    53     1 
   35    37     1 
   35    38     1 
   35    53     1 
   36    40     1 
   36    41     1 
   36    56     1 
   36    57     1 
   36    59     1 
   37    39     1 
   37    54     1 
   37    55     1 
   37    58     1 
   38    42     1 
   38    51     1 
   38    54     1 
   38    56     1 
   38    57     1 
   38    58     1 
   39    43     1 
   39    44     1 
   39    50     1 
   39    52     1 
   39    54     1 
   39    58     1 
   40    42     1 
   40    51     1 
   40    53     1 
   40    56     1 
   40    57     1 
   41    45     1 
   41    46     1 
   41    53     1 
   41    56     1 
   41    57     1 
   42    47     1 
   42    50     1 
   42    52     1 
   42    55     1 
   43    45     1 
   43    46     1 
   43    51     1 
   44    48     1 
   44    49     1 
   44    51     1 
   45    47     1 
   45    50     1 
   46    52     1 
   47    51     1 
   48    50     1 
   49    50     1 
   51    55     1 
   53    60     1 
   53    61     1 
   53    62     1 
   54    56     1 
   54    57     1 
   54    59     1 
   55    59     1 
   56    58     1 
   57    58     1 
   58    63     1 
   59    64     1 
   59    65     1 
   59    66     1 
   60    63     1 
   61    63     1 
   62    67     1 
   62    68     1 
   62    83     1 
   63    69     1 
   63    84     1 
   63    85     1 
   63    88     1 
   64    67     1 
   64    68     1 
   64    83     1 
   65    67     1 
   65    68     1 
   65    83     1 
   66    70     1 
   66    71     1 
   66    86     1 
   66    87     1 
   66    89     1 
   67    69     1 
   67    84     1 
   67    85     1 
   67    88     1 
   68    72     1 
   68    81     1 
   68    84     1 
   68    86     1 
   68    87     1 
   68    88     1 
   69    73     1 
   69    74     1 
   69    80     1 
   69    82     1 
   69    84     1 
   69    88     1 
   70    72     1 
   70    81     1 
   70    83     1 
   70    86     1 
   70    87     1 
   71    75     1 
   71    76     1 
   71    83     1 
   71    86     1 
   71    87     1 
   72    77     1 
   72    80     1 
   72    82     1 
   72    85     1 
   73    75     1 
   73    76     1 
   73    81     1 
   74    78     1 
   74    79     1 
   74    81     1 
   75    77     1 
   75    80     1 
   76    82     1 
   77    81     1 
   78    80     1 
   79    80     1 
   81    85     1 
   83    90     1 
   83    91     1 
   83    92     1 
   84    86     1 
   84    87     1 
   84    89     1 
   85    89     1 
   86    88     1 
   87    88     1 
   88    93     1 
   89    94     1 
   89    95     1 
   89    96     1 
   90    93     1 
   91    93     1 
   92    97     1 
   92    98     1 
   92   116     1 
   93    99     1 
   93   117     1 
   93   118     1 
   93   121     1 
   94    97     1 
   94    98     1 
   94   116     1 
   95    97     1 
   95    98     1 
   95   116     1 
   96   100     1 
   96   101     1 
   96   119     1 
   96   120     1 
   96   122     1 
   97    99     1 
   97   117     1 
   97   118     1 
   97   121     1 
   98   102     1 
   98   115     1 
   98   117     1 
   98   119     1 
   98   120     1 
   98   121     1 
   99   103     1 
   99   104     1 
   99   105     1 
   99   114     1 
   99   117     1 
   99   121     1 
  100   102     1 
  100   115     1 
  100   116     1 
  100   119     1 
  100   120     1 
  101   106     1 
  101   110     1 
  101   116     1 
  101   119     1 
  101   120     1 
  102   106     1 
  102   114     1 
  102   118     1 
  103   105     1 
  103   115     1 
  104   107     1 
  104   108     1 
  104   114     1 
  105   109     1 
  105   110     1 
  106   111     1 
  106   114     1 
  107   109     1 
  107   110     1 
  107   115     1 
  108   112     1 
  108   113     1 
  108   115     1 
  109   111     1 
  109   114     1 
  111   115     1 
  112   114     1 
  113   114     1 
  115   118     1 
  116   123     1 
  116   124     1 
  116   125     1 
  117   119     1 
  117   120     1 
  117   122     1 
  118   122     1 
  119   121     1 
  120   121     1 
  121   126     1 
  122   127     1 
  122   128     1 
  122   129     1 
  123   126     1 
  124   126     1 
  125   130     1 
  125   131     1 
  125   149     1 
  126   132     1 
  126   150     1 
  126   151     1 
  126   154     1 
  127   130     1 
  127   131     1 
  127   149     1 
  128   130     1 
  128   131     1 
  128   149     1 
  129   133     1 
  129   134     1 
  129   152     1 
  129   153     1 
  129   155     1 
  130   132     1 
  130   150     1 
  130   151     1 
  130   154     1 
  131   135     1 
  131   148     1 
  131   150     1 
  131   152     1 
  131   153     1 
  131   154     1 
  132   136     1 
  132   137     1 
  132   138     1 
  132   147     1 
  132   150     1 
  132   154     1 
  133   135     1 
  133   148     1 
  133   149     1 
  133   152     1 
  133   153     1 
  134   139     1 
  134   143     1 
  134   149     1 
  134   152     1 
  134   153     1 
  135   139     1 
  135   147     1 
  135   151     1 
  136   138     1 
  136   148     1 
  137   140     1 
  137   141     1 
  137   147     1 
  138   142     1 
  138   143     1 
  139   144     1 
  139   147     1 
  140   142     1 
  140   143     1 
  140   148     1 
  141   145     1 
  141   146     1 
  141   148     1 
  142   144     1 
  142   147     1 
  144   148     1 
  145   147     1 
  146   147     1 
  148   151     1 
  149   156     1 
  149   157     1 
  149   158     1 
  150   152     1 
  150   153     1 
  150   155     1 
  151   155     1 
  152   154     1 
  153   154     1 
  154   159     1 
  155   160     1 
  155   161     1 
  155   162     1 
  156   159     1 
  157   159     1 
  158   163     1 
  158   164     1 
  158   179     1 
  159   165     1 
  159   180     1 
  159   181     1 
  159   184     1 
  160   163     1 
  160   164     1 
  160   179     1 
  161   163     1 
  161   164     1 
  161   179     1 
  162   166     1 
  162   167     1 
  162   182     1 
  162   183     1 
  162   185     1 
  163   165     1 
  163   180     1 
  163   181     1 
  163   184     1 
  164   168     1 
  164   177     1 
  164   180     1 
  164   182     1 
  164   183     1 
  164   184     1 
  165   169     1 
  165   170     1 
  165   176     1 
  165   178     1 
  165   180     1 
  165   184     1 
  166   168     1 
  166   177     1 
  166   179     1 
  166   182     1 
  166   183     1 
  167   171     1 
  167   172     1 
  167   179     1 
  167   182     1 
  167   183     1 
  168   173     1 
  168   176     1 
  168   178     1 
  168   181     1 
  169   171     1 
  169   172     1 
  169   177     1 
  170   174     1 
  170   175     1 
  170   177     1 
  171   173     1 
  171   176     1 
  172   178     1 
  173   177     1 
  174   176     1 
  175   176     1 
  177   181     1 
  179   186     1 
  179   187     1 
  179   188     1 
  180   182     1 
  180   183     1 
  180   185     1 
  181   185     1 
  182   184     1 
  183   184     1 
  184   189     1 
  185   190     1 
  185   191     1 
  185   192     1 
  186   189     1 
  187   189     1 
  188   193     1 
  188   194     1 
  188   209     1 
  189   195     1 
  189   210     1 
  189   211     1 
  189   214     1 
  190   193     1 
  190   194     1 
  190   209     1 
  191   193     1 
  191   194     1 
  191   209     1 
  192   196     1 
  192   197     1 
  192   212     1 
  192   213     1 
  192   215     1 
  193   195     1 
  193   210     1 
  193   211     1 
  193   214     1 
  194   198     1 
  194   207     1 
  194   210     1 
  194   212     1 
  194   213     1 
  194   214     1 
  195   199     1 
  195   200     1 
  195   206     1 
  195   208     1 
  195   210     1 
  195   214     1 
  196   198     1 
  196   207     1 
  196   209     1 
  196   212     1 
  196   213     1 
  197   201     1 
  197   202     1 
  197   209     1 
  197   212     1 
  197   213     1 
  198   203     1 
  198   206     1 
  198   208     1 
  198   211     1 
  199   201     1 
  199   202     1 
  199   207     1 
  200   204     1 
  200   205     1 
  200   207     1 
  201   203     1 
  201   206     1 
  202   208     1 
  203   207     1 
  204   206     1 
  205   206     1 
  207   211     1 
  209   216     1 
  209   217     1 
  209   218     1 
  210   212     1 
  210   213     1 
  210   215     1 
  211   215     1 
  212   214     1 
  213   214     1 
  214   219     1 
  215   220     1 
  215   221     1 
  215   222     1 
  216   219     1 
  217   219     1 
  218   223     1 
  218   224     1 
  218   239     1 
  219   225     1 
  219   240     1 
  219   241     1 
  219   244     1 
  220   223     1 
  220   224     1 
  220   239     1 
  221   223     1 
  221   224     1 
  221   239     1 
  222   226     1 
  222   227     1 
  222   242     1 
  222   243     1 
  222   245     1 
  223   225     1 
  223   240     1 
  223   241     1 
  223   244     1 
  224   228     1 
  224   237     1 
  224   240     1 
  224   242     1 
  224   243     1 
  224   244     1 
  225   229     1 
  225   230     1 
  225   236     1 
  225   238     1 
  225   240     1 
  225   244     1 
  226   228     1 
  226   237     1 
  226   239     1 
  226   242     1 
  226   243     1 
  227   231     1 
  227   232     1 
  227   239     1 
  227   242     1 
  227   243     1 
  228   233     1 
  228   236     1 
  228   238     1 
  228   241     1 
  229   231     1 
  229   232     1 
  229   237     1 
  230   234     1 
  230   235     1 
  230   237     1 
  231   233     1 
  231   236     1 
  232   238     1 
  233   237     1 
  234   236     1 
  235   236     1 
  237   241     1 
  239   246     1 
  239   247     1 
  239   248     1 
  240   242     1 
  240   243     1 
  240   245     1 
  241   245     1 
  242   244     1 
  243   244     1 
  244   249     1 
  245   250     1 
  245   251     1 
  245   252     1 
  246   249     1 
  247   249     1 
  248   253     1 
  248   254     1 
  248   269     1 
  249   255     1 
  249   270     1 
  249   271     1 
  249   274     1 
  250   253     1 
  250   254     1 
  250   269     1 
  251   253     1 
  251   254     1 
  251   269     1 
  252   256     1 
  252   257     1 
  252   272     1 
  252   273     1 
  252   275     1 
  253   255     1 
  253   270     1 
  253   271     1 
  253   274     1 
  254   258     1 
  254   267     1 
  254   270     1 
  254   272     1 
  254   273     1 
  254   274     1 
  255   259     1 
  255   260     1 
  255   266     1 
  255   268     1 
  255   270     1 
  255   274     1 
  256   258     1 
  256   267     1 
  256   269     1 
  256   272     1 
  256   273     1 
  257   261     1 
  257   262     1 
  257   269     1 
  257   272     1 
  257   273     1 
  258   263     1 
  258   266     1 
  258   268     1 
  258   271     1 
  259   261     1 
  259   262     1 
  259   267     1 
  260   264     1 
  260   265     1 
  260   267     1 
  261   263     1 
  261   266     1 
  262   268     1 
  263   267     1 
  264   266     1 
  265   266     1 
  267   271     1 
  269   276     1 
  269   277     1 
  269   278     1 
  270   272     1 
  270   273     1 
  270   275     1 
  271   275     1 
  272   274     1 
  273   274     1 
  274   279     1 
  275   280     1 
  275   281     1 
  275   282     1 
  276   279     1 
  277   279     1 
  278   283     1 
  278   284     1 
  278   299     1 
  279   285     1 
  279   300     1 
  279   301     1 
  279   304     1 
  280   283     1 
  280   284     1 
  280   299     1 
  281   283     1 
  281   284     1 
  281   299     1 
  282   286     1 
  282   287     1 
  282   302     1 
  282   303     1 
  282   305     1 
  283   285     1 
  283   300     1 
  283   301     1 
  283   304     1 
  284   288     1 
  284   297     1 
  284   300     1 
  284   302     1 
  284   303     1 
  284   304     1 
  285   289     1 
  285   290     1 
  285   296     1 
  285   298     1 
  285   300     1 
  285   304     1 
  286   288     1 
  286   297     1 
  286   299     1 
  286   302     1 
  286   303     1 
  287   291     1 
  287   292     1 
  287   299     1 
  287   302     1 
  287   303     1 
  288   293     1 
  288   296     1 
  288   298     1 
  288   301     1 
  289   291     1 
  289   292     1 
  289   297     1 
  290   294     1 
  290   295     1 
  290   297     1 
  291   293     1 
  291   296     1 
  292   298     1 
  293   297     1 
  294   296     1 
  295   296     1 
  297   301     1 
  299   306     1 
  299   307     1 
  299   308     1 
  300   302     1 
  300   303     1 
  300   305     1 
  301   305     1 
  302   304     1 
  303   304     1 
  304   309     1 
  305   310     1 
  305   311     1 
  305   312     1 
  306   309     1 
  307   309     1 
  308   313     1 
  308   314     1 
  308   332     1 
  309   315     1 
  309   333     1 
  309   334     1 
  309   337     1 
  310   313     1 
  310   314     1 
  310   332     1 
  311   313     1 
  311   314     1 
  311   332     1 
  312   316     1 
  312   317     1 
  312   335     1 
  312   336     1 
  312   338     1 
  313   315     1 
  313   333     1 
  313   334     1 
  313   337     1 
  314   318     1 
  314   331     1 
  314   333     1 
  314   335     1 
  314   336     1 
  314   337     1 
  315   319     1 
  315   320     1 
  315   321     1 
  315   330     1 
  315   333     1 
  315   337     1 
  316   318     1 
  316   331     1 
  316   332     1 
  316   335     1 
  316   336     1 
  317   322     1 
  317   326     1 
  317   332     1 
  317   335     1 
  317   336     1 
  318   322     1 
  318   330     1 
  318   334     1 
  319   321     1 
  319   331     1 
  320   323     1 
  320   324     1 
  320   330     1 
  321   325     1 
  321   326     1 
  322   327     1 
  322   330     1 
  323   325     1 
  323   326     1 
  323   331     1 
  324   328     1 
  324   329     1 
  324   331     1 
  325   327     1 
  325   330     1 
  327   331     1 
  328   330     1 
  329   330     1 
  331   334     1 
  332   339     1 
  332   340     1 
  332   341     1 
  333   335     1 
  333   336     1 
  333   338     1 
  334   338     1 
  335   337     1 
  336   337     1 
  337   342     1 
  338   343     1 
  338   344     1 
  338   345     1 
  339   342     1 
  340   342     1 
  341   346     1 
  341   347     1 
  341   362     1 
  342   348     1 
  342   363     1 
  342   364     1 
  342   367     1 
  343   346     1 
  343   347     1 
  343   362     1 
  344   346     1 
  344   347     1 
  344   362     1 
  345   349     1 
  345   350     1 
  345   365     1 
  345   366     1 
  345   368     1 
  346   348     1 
  346   363     1 
  346   364     1 
  346   367     1 
  347   351     1 
  347   360     1 
  347   363     1 
  347   365     1 
  347   366     1 
  347   367     1 
  348   352     1 
  348   353     1 
  348   359     1 
  348   361     1 
  348   363     1 
  348   367     1 
  349   351     1 
  349   360     1 
  349   362     1 
  349   365     1 
  349   366     1 
  350   354     1 
  350   355     1 
  350   362     1 
  350   365     1 
  350   366     1 
  351   356     1 
  351   359     1 
  351   361     1 
  351   364     1 
  352   354     1 
  352   355     1 
  352   360     1 
  353   357     1 
  353   358     1 
  353   360     1 
  354   356     1 
  354   359     1 
  355   361     1 
  356   360     1 
  357   359     1 
  358   359     1 
  360   364     1 
  362   369     1 
  362   370     1 
  362   371     1 
  363   365     1 
  363   366     1 
  363   368     1 
  364   368     1 
  365   367     1 
  366   367     1 
  367   372     1 
  368   373     1 
  368   374     1 
  368   375     1 
  369   372     1 
  370   372     1 
  371   376     1 
  371   377     1 
  371   392     1 
  372   378     1 
  372   393     1 
  372   394     1 
  372   397     1 
  373   376     1 
  373   377     1 
  373   392     1 
  374   376     1 
  374   377     1 
  374   392     1 
  375   379     1 
  375   380     1 
  375   395     1 
  375   396     1 
  375   398     1 
  376   378     1 
  376   393     1 
  376   394     1 
  376   397     1 
  377   381     1 
  377   390     1 
  377   393     1 
  377   395     1 
  377   396     1 
  377   397     1 
  378   382     1 
  378   383     1 
  378   389     1 
  378   391     1 
  378   393     1 
  378   397     1 
  379   381     1 
  379   390     1 
  379   392     1 
  379   395     1 
  379   396     1 
  380   384     1 
  380   385     1 
  380   392     1 
  380   395     1 
  380   396     1 
  381   386     1 
  381   389     1 
  381   391     1 
  381   394     1 
  382   384     1 
  382   385     1 
  382   390     1 
  383   387     1 
  383   388     1 
  383   390     1 
  384   386     1 
  384   389     1 
  385   391     1 
  386   390     1 
  387   389     1 
  388   389     1 
  390   394     1 
  392   399     1 
  392   400     1 
  392   401     1 
  393   395     1 
  393   396     1 
  393   398     1 
  394   398     1 
  395   397     1 
  396   397     1 
  397   402     1 
  398   403     1 
  398   404     1 
  398   405     1 
  399   402     1 
  400   402     1 
  401   406     1 
  401   407     1 
  401   424     1 
  402   408     1 
  402   425     1 
  402   426     1 
  402   429     1 
  403   406     1 
  403   407     1 
  403   424     1 
  404   406     1 
  404   407     1 
  404   424     1 
  405   409     1 
  405   410     1 
  405   427     1 
  405   428     1 
  405   430     1 
  406   408     1 
  406   425     1 
  406   426     1 
  406   429     1 
  407   411     1 
  407   423     1 
  407   425     1 
  407   427     1 
  407   428     1 
  407   429     1 
  408   412     1 
  408   413     1 
  408   414     1 
  408   422     1 
  408   425     1 
  408   429     1 
  409   411     1 
  409   423     1 
  409   424     1 
  409   427     1 
  409   428     1 
  410   415     1 
  410   420     1 
  410   424     1 
  410   427     1 
  410   428     1 
  411   415     1 
  411   422     1 
  411   426     1 
  412   414     1 
  412   423     1 
  413   416     1 
  413   419     1 
  413   422     1 
  414   417     1 
  414   418     1 
  414   420     1 
  415   421     1 
  415   422     1 
  416   420     1 
  416   423     1 
  417   419     1 
  418   419     1 
  419   423     1 
  421   423     1 
  423   426     1 
  424   431     1 
  424   432     1 
  424   433     1 
  425   427     1 
  425   428     1 
  425   430     1 
  426   430     1 
  427   429     1 
  428   429     1 
  429   434     1 
  430   435     1 
  430   436     1 
  430   437     1 
  431   434     1 
  432   434     1 
  433   438     1 
  433   439     1 
  433   456     1 
  434   440     1 
  434   457     1 
  434   458     1 
  434   461     1 
  435   438     1 
  435   439     1 
  435   456     1 
  436   438     1 
  436   439     1 
  436   456     1 
  437   441     1 
  437   442     1 
  437   459     1 
  437   460     1 
  437   462     1 
  438   440     1 
  438   457     1 
  438   458     1 
  438   461     1 
  439   443     1 
  439   454     1 
  439   457     1 
  439   459     1 
  439   460     1 
  439   461     1 
  440   444     1 
  440   445     1 
  440   452     1 
  440   455     1 
  440   457     1 
  440   461     1 
  441   443     1 
  441   454     1 
  441   456     1 
  441   459     1 
  441   460     1 
  442   446     1 
  442   450     1 
  442   453     1 
  442   456     1 
  442   459     1 
  442   460     1 
  443   447     1 
  443   448     1 
  443   449     1 
  443   451     1 
  443   452     1 
  443   455     1 
  443   458     1 
  444   446     1 
  444   450     1 
  444   454     1 
  445   453     1 
  445   454     1 
  446   451     1 
  446   452     1 
  447   450     1 
  448   450     1 
  449   450     1 
  450   455     1 
  451   453     1 
  451   454     1 
  453   455     1 
  454   458     1 
  456   463     1 
  456   464     1 
  456   465     1 
  457   459     1 
  457   460     1 
  457   462     1 
  458   462     1 
  459   461     1 
  460   461     1 
  461   466     1 
  462   467     1 
  462   468     1 
  462   469     1 
  463   466     1 
  464   466     1 
  465   470     1 
  465   471     1 
  465   488     1 
  466   472     1 
  466   489     1 
  466   490     1 
  466   493     1 
  467   470     1 
  467   471     1 
  467   488     1 
  468   470     1 
  468   471     1 
  468   488     1 
  469   473     1 
  469   474     1 
  469   491     1 
  469   492     1 
  469   494     1 
  470   472     1 
  470   489     1 
  470   490     1 
  470   493     1 
  471   475     1 
  471   486     1 
  471   489     1 
  471   491     1 
  471   492     1 
  471   493     1 
  472   476     1 
  472   477     1 
  472   484     1 
  472   487     1 
  472   489     1 
  472   493     1 
  473   475     1 
  473   486     1 
  473   488     1 
  473   491     1 
  473   492     1 
  474   478     1 
  474   482     1 
  474   485     1 
  474   488     1 
  474   491     1 
  474   492     1 
  475   479     1 
  475   480     1 
  475   481     1 
  475   483     1 
  475   484     1 
  475   487     1 
  475   490     1 
  476   478     1 
  476   482     1 
  476   486     1 
  477   485     1 
  477   486     1 
  478   483     1 
  478   484     1 
  479   482     1 
  480   482     1 
  481   482     1 
  482   487     1 
  483   485     1 
  483   486     1 
  485   487     1 
  486   490     1 
  488   495     1 
  488   496     1 
  488   497     1 
  489   491     1 
  489   492     1 
  489   494     1 
  490   494     1 
  491   493     1 
  492   493     1 
  493   498     1 
  494   499     1 
  494   500     1 
  494   501     1 
  495   498     1 
  496   498     1 
  497   502     1 
  497   503     1 
  497   520     1 
  498   504     1 
  498   521     1 
  498   522     1 
  498   525     1 
  499   502     1 
  499   503     1 
  499   520     1 
  500   502     1 
  500   503     1 
  500   520     1 
  501   505     1 
  501   506     1 
  501   523     1 
  501   524     1 
  501   526     1 
  502   504     1 
  502   521     1 
  502   522     1 
  502   525     1 
  503   507     1 
  503   518     1 
  503   521     1 
  503   523     1 
  503   524     1 
  503   525     1 
  504   508     1 
  504   509     1 
  504   516     1 
  504   519     1 
  504   521     1 
  504   525     1 
  505   507     1 
  505   518     1 
  505   520     1 
  505   523     1 
  505   524     1 
  506   510     1 
  506   514     1 
  506   517     1 
  506   520     1 
  506   523     1 
  506   524     1 
  507   511     1 
  507   512     1 
  507   513     1 
  507   515     1 
  507   516     1 
  507   519     1 
  507   522     1 
  508   510     1 
  508   514     1 
  508   518     1 
  509   517     1 
  509   518     1 
  510   515     1 
  510   516     1 
  511   514     1 
  512   514     1 
  513   514     1 
  514   519     1 
  515   517     1 
  515   518     1 
  517   519     1 
  518   522     1 
  520   527     1 
  520   528     1 
  520   529     1 
  521   523     1 
  521   524     1 
  521   526     1 
  522   526     1 
  523   525     1 
  524   525     1 
  525   530     1 
  526   531     1 
  526   532     1 
  526   533     1 
  527   530     1 
  528   530     1 
  529   534     1 
  529   535     1 
  529   550     1 
  530   536     1 
  530   551     1 
  530   552     1 
  530   555     1 
  531   534     1 
  531   535     1 
  531   550     1 
  532   534     1 
  532   535     1 
  532   550     1 
  533   537     1 
  533   538     1 
  533   553     1 
  533   554     1 
  533   556     1 
  534   536     1 
  534   551     1 
  534   552     1 
  534   555     1 
  535   539     1 
  535   548     1 
  535   551     1 
  535   553     1 
  535   554     1 
  535   555     1 
  536   540     1 
  536   541     1 
  536   547     1 
  536   549     1 
  536   551     1 
  536   555     1 
  537   539     1 
  537   548     1 
  537   550     1 
  537   553     1 
  537   554     1 
  538   542     1 
  538   543     1 
  538   550     1 
  538   553     1 
  538   554     1 
  539   544     1 
  539   547     1 
  539   549     1 
  539   552     1 
  540   542     1 
  540   543     1 
  540   548     1 
  541   545     1 
  541   546     1 
  541   548     1 
  542   544     1 
  542   547     1 
  543   549     1 
  544   548     1 
  545   547     1 
  546   547     1 
  548   552     1 
  550   557     1 
  550   558     1 
  550   559     1 
  551   553     1 
  551   554     1 
  551   556     1 
  552   556     1 
  553   555     1 
  554   555     1 
  555   560     1 
  556   561     1 
  556   562     1 
  556   563     1 
  557   560     1 
  558   560     1 
  559   564     1 
  559   565     1 
  559   583     1 
  560   566     1 
  560   584     1 
  560   585     1 
  560   588     1 
  561   564     1 
  561   565     1 
  561   583     1 
  562   564     1 
  562   565     1 
  562   583     1 
  563   567     1 
  563   568     1 
  563   586     1 
  563   587     1 
  563   589     1 
  564   566     1 
  564   584     1 
  564   585     1 
  564   588     1 
  565   569     1 
  565   582     1 
  565   584     1 
  565   586     1 
  565   587     1 
  565   588     1 
  566   570     1 
  566   571     1 
  566   572     1 
  566   581     1 
  566   584     1 
  566   588     1 
  567   569     1 
  567   582     1 
  567   583     1 
  567   586     1 
  567   587     1 
  568   573     1 
  568   577     1 
  568   583     1 
  568   586     1 
  568   587     1 
  569   573     1 
  569   581     1 
  569   585     1 
  570   572     1 
  570   582     1 
  571   574     1 
  571   575     1 
  571   581     1 
  572   576     1 
  572   577     1 
  573   578     1 
  573   581     1 
  574   576     1 
  574   577     1 
  574   582     1 
  575   579     1 
  575   580     1 
  575   582     1 
  576   578     1 
  576   581     1 
  578   582     1 
  579   581     1 
  580   581     1 
  582   585     1 
  583   590     1 
  583   591     1 
  583   592     1 
  584   586     1 
  584   587     1 
  584   589     1 
  585   589     1 
  586   588     1 
  587   588     1 
  588   593     1 
  589   594     1 
  589   595     1 
  589   596     1 
  590   593     1 
  591   593     1 
  592   597     1 
  592   598     1 
  592   616     1 
  593   599     1 
  593   617     1 
  593   618     1 
  593   621     1 
  594   597     1 
  594   598     1 
  594   616     1 
  595   597     1 
  595   598     1 
  595   616     1 
  596   600     1 
  596   601     1 
  596   619     1 
  596   620     1 
  596   622     1 
  597   599     1 
  597   617     1 
  597   618     1 
  597   621     1 
  598   602     1 
  598   615     1 
  598   617     1 
  598   619     1 
  598   620     1 
  598   621     1 
  599   603     1 
  599   604     1 
  599   605     1 
  599   614     1 
  599   617     1 
  599   621     1 
  600   602     1 
  600   615     1 
  600   616     1 
  600   619     1 
  600   620     1 
  601   606     1 
  601   610     1 
  601   616     1 
  601   619     1 
  601   620     1 
  602   606     1 
  602   614     1 
  602   618     1 
  603   605     1 
  603   615     1 
  604   607     1 
  604   608     1 
  604   614     1 
  605   609     1 
  605   610     1 
  606   611     1 
  606   614     1 
  607   609     1 
  607   610     1 
  607   615     1 
  608   612     1 
  608   613     1 
  608   615     1 
  609   611     1 
  609   614     1 
  611   615     1 
  612   614     1 
  613   614     1 
  615   618     1 
  616   623     1 
  616   624     1 
  616   625     1 
  617   619     1 
  617   620     1 
  617   622     1 
  618   622     1 
  619   621     1 
  620   621     1 
  621   626     1 
  622   627     1 
  622   628     1 
  622   629     1 
  623   626     1 
  624   626     1 
  625   630     1 
  625   631     1 
  625   648     1 
  626   632     1 
  626   649     1 
  626   650     1 
  626   653     1 
  627   630     1 
  627   631     1 
  627   648     1 
  628   630     1 
  628   631     1 
  628   648     1 
  629   633     1 
  629   634     1 
  629   651     1 
  629   652     1 
  629   654     1 
  630   632     1 
  630   649     1 
  630   650     1 
  630   653     1 
  631   635     1 
  631   647     1 
  631   649     1 
  631   651     1 
  631   652     1 
  631   653     1 
  632   636     1 
  632   637     1 
  632   638     1 
  632   646     1 
  632   649     1 
  632   653     1 
  633   635     1 
  633   647     1 
  633   648     1 
  633   651     1 
  633   652     1 
  634   639     1 
  634   644     1 
  634   648     1 
  634   651     1 
  634   652     1 
  635   639     1 
  635   646     1 
  635   650     1 
  636   638     1 
  636   647     1 
  637   640     1 
  637   643     1 
  637   646     1 
  638   641     1 
  638   642     1 
  638   644     1 
  639   645     1 
  639   646     1 
  640   644     1 
  640   647     1 
  641   643     1 
  642   643     1 
  643   647     1 
  645   647     1 
  647   650     1 
  648   655     1 
  648   656     1 
  648   657     1 
  649   651     1 
  649   652     1 
  649   654     1 
  650   654     1 
  651   653     1 
  652   653     1 
  653   658     1 
  654   659     1 
  654   660     1 
  654   661     1 
  655   658     1 
  656   658     1 
  657   662     1 
  657   663     1 
  657   678     1 
  658   664     1 
  658   679     1 
  658   680     1 
  658   683     1 
  659   662     1 
  659   663     1 
  659   678     1 
  660   662     1 
  660   663     1 
  660   678     1 
  661   665     1 
  661   666     1 
  661   681     1 
  661   682     1 
  661   684     1 
  662   664     1 
  662   679     1 
  662   680     1 
  662   683     1 
  663   667     1 
  663   676     1 
  663   679     1 
  663   681     1 
  663   682     1 
  663   683     1 
  664   668     1 
  664   669     1 
  664   675     1 
  664   677     1 
  664   679     1 
  664   683     1 
  665   667     1 
  665   676     1 
  665   678     1 
  665   681     1 
  665   682     1 
  666   670     1 
  666   671     1 
  666   678     1 
  666   681     1 
  666   682     1 
  667   672     1 
  667   675     1 
  667   677     1 
  667   680     1 
  668   670     1 
  668   671     1 
  668   676     1 
  669   673     1 
  669   674     1 
  669   676     1 
  670   672     1 
  670   675     1 
  671   677     1 
  672   676     1 
  673   675     1 
  674   675     1 
  676   680     1 
  678   685     1 
  678   686     1 
  678   687     1 
  679   681     1 
  679   682     1 
  679   684     1 
  680   684     1 
  681   683     1 
  682   683     1 
  683   688     1 
  684   689     1 
  684   690     1 
  684   691     1 
  685   688     1 
  686   688     1 
  687   692     1 
  687   693     1 
  687   710     1 
  688   694     1 
  688   711     1 
  688   712     1 
  688   715     1 
  689   692     1 
  689   693     1 
  689   710     1 
  690   692     1 
  690   693     1 
  690   710     1 
  691   695     1 
  691   696     1 
  691   713     1 
  691   714     1 
  691   716     1 
  692   694     1 
  692   711     1 
  692   712     1 
  692   715     1 
  693   697     1 
  693   708     1 
  693   711     1 
  693   713     1 
  693   714     1 
  693   715     1 
  694   698     1 
  694   699     1 
  694   706     1 
  694   709     1 
  694   711     1 
  694   715     1 
  695   697     1 
  695   708     1 
  695   710     1 
  695   713     1 
  695   714     1 
  696   700     1 
  696   704     1 
  696   707     1 
  696   710     1 
  696   713     1 
  696   714     1 
  697   701     1 
  697   702     1 
  697   703     1 
  697   705     1 
  697   706     1 
  697   709     1 
  697   712     1 
  698   700     1 
  698   704     1 
  698   708     1 
  699   707     1 
  699   708     1 
  700   705     1 
  700   706     1 
  701   704     1 
  702   704     1 
  703   704     1 
  704   709     1 
  705   707     1 
  705   708     1 
  707   709     1 
  708   712     1 
  710   717     1 
  710   718     1 
  710   719     1 
  711   713     1 
  711   714     1 
  711   716     1 
  712   716     1 
  713   715     1 
  714   715     1 
  715   720     1 
  716   721     1 
  716   722     1 
  716   723     1 
  717   720     1 
  718   720     1 
  719   724     1 
  719   725     1 
  719   743     1 
  720   726     1 
  720   744     1 
  720   745     1 
  720   748     1 
  721   724     1 
  721   725     1 
  721   743     1 
  722   724     1 
  722   725     1 
  722   743     1 
  723   727     1 
  723   728     1 
  723   746     1 
  723   747     1 
  723   749     1 
  724   726     1 
  724   744     1 
  724   745     1 
  724   748     1 
  725   729     1 
  725   742     1 
  725   744     1 
  725   746     1 
  725   747     1 
  725   748     1 
  726   730     1 
  726   731     1 
  726   732     1 
  726   741     1 
  726   744     1 
  726   748     1 
  727   729     1 
  727   742     1 
  727   743     1 
  727   746     1 
  727   747     1 
  728   733     1 
  728   737     1 
  728   743     1 
  728   746     1 
  728   747     1 
  729   733     1 
  729   741     1 
  729   745     1 
  730   732     1 
  730   742     1 
  731   734     1 
  731   735     1 
  731   741     1 
  732   736     1 
  732   737     1 
  733   738     1 
  733   741     1 
  734   736     1 
  734   737     1 
  734   742     1 
  735   739     1 
  735   740     1 
  735   742     1 
  736   738     1 
  736   741     1 
  738   742     1 
  739   741     1 
  740   741     1 
  742   745     1 
  743   750     1 
  743   751     1 
  743   752     1 
  744   746     1 
  744   747     1 
  744   749     1 
  745   749     1 
  746   748     1 
  747   748     1 
  748   753     1 
  749   754     1 
  749   755     1 
  749   756     1 
  750   753     1 
  751   753     1 
  752   757     1 
  752   758     1 
  752   776     1 
  753   759     1 
  753   777     1 
  753   778     1 
  753   781     1 
  754   757     1 
  754   758     1 
  754   776     1 
  755   757     1 
  755   758     1 
  755   776     1 
  756   760     1 
  756   761     1 
  756   779     1 
  756   780     1 
  756   782     1 
  757   759     1 
  757   777     1 
  757   778     1 
  757   781     1 
  758   762     1 
  758   775     1 
  758   777     1 
  758   779     1 
  758   780     1 
  758   781     1 
  759   763     1 
  759   764     1 
  759   765     1 
  759   774     1 
  759   777     1 
  759   781     1 
  760   762     1 
  760   775     1 
  760   776     1 
  760   779     1 
  760   780     1 
  761   766     1 
  761   770     1 
  761   776     1 
  761   779     1 
  761   780     1 
  762   766     1 
  762   774     1 
  762   778     1 
  763   765     1 
  763   775     1 
  764   767     1 
  764   768     1 
  764   774     1 
  765   769     1 
  765   770     1 
  766   771     1 
  766   774     1 
  767   769     1 
  767   770     1 
  767   775     1 
  768   772     1 
  768   773     1 
  768   775     1 
  769   771     1 
  769   774     1 
  771   775     1 
  772   774     1 
  773   774     1 
  775   778     1 
  776   783     1 
  776   784     1 
  776   785     1 
  777   779     1 
  777   780     1 
  777   782     1 
  778   782     1 
  779   781     1 
  780   781     1 
  781   786     1 
  782   787     1 
  782   788     1 
  782   789     1 
  783   786     1 
  784   786     1 
  785   790     1 
  785   791     1 
  785   809     1 
  786   792     1 
  786   810     1 
  786   811     1 
  786   814     1 
  787   790     1 
  787   791     1 
  787   809     1 
  788   790     1 
  788   791     1 
  788   809     1 
  789   793     1 
  789   794     1 
  789   812     1 
  789   813     1 
  789   815     1 
  790   792     1 
  790   810     1 
  790   811     1 
  790   814     1 
  791   795     1 
  791   808     1 
  791   810     1 
  791   812     1 
  791   813     1 
  791   814     1 
  792   796     1 
  792   797     1 
  792   798     1 
  792   807     1 
  792   810     1 
  792   814     1 
  793   795     1 
  793   808     1 
  793   809     1 
  793   812     1 
  793   813     1 
  794   799     1 
  794   803     1 
  794   809     1 
  794   812     1 
  794   813     1 
  795   799     1 
  795   807     1 
  795   811     1 
  796   798     1 
  796   808     1 
  797   800     1 
  797   801     1 
  797   807     1 
  798   802     1 
  798   803     1 
  799   804     1 
  799   807     1 
  800   802     1 
  800   803     1 
  800   808     1 
  801   805     1 
  801   806     1 
  801   808     1 
  802   804     1 
  802   807     1 
  804   808     1 
  805   807     1 
  806   807     1 
  808   811     1 
  809   816     1 
  809   817     1 
  809   818     1 
  810   812     1 
  810   813     1 
  810   815     1 
  811   815     1 
  812   814     1 
  813   814     1 
  814   819     1 
  815   820     1 
  815   821     1 
  815   822     1 
  816   819     1 
  817   819     1 
  818   823     1 
  818   824     1 
  818   841     1 
  819   825     1 
  819   842     1 
  819   843     1 
  819   846     1 
  820   823     1 
  820   824     1 
  820   841     1 
  821   823     1 
  821   824     1 
  821   841     1 
  822   826     1 
  822   827     1 
  822   844     1 
  822   845     1 
  822   847     1 
  823   825     1 
  823   842     1 
  823   843     1 
  823   846     1 
  824   828     1 
  824   840     1 
  824   842     1 
  824   844     1 
  824   845     1 
  824   846     1 
  825   829     1 
  825   830     1 
  825   831     1 
  825   839     1 
  825   842     1 
  825   846     1 
  826   828     1 
  826   840     1 
  826   841     1 
  826   844     1 
  826   845     1 
  827   832     1 
  827   837     1 
  827   841     1 
  827   844     1 
  827   845     1 
  828   832     1 
  828   839     1 
  828   843     1 
  829   831     1 
  829   840     1 
  830   833     1 
  830   836     1 
  830   839     1 
  831   834     1 
  831   835     1 
  831   837     1 
  832   838     1 
  832   839     1 
  833   837     1 
  833   840     1 
  834   836     1 
  835   836     1 
  836   840     1 
  838   840     1 
  840   843     1 
  841   848     1 
  841   849     1 
  841   850     1 
  842   844     1 
  842   845     1 
  842   847     1 
  843   847     1 
  844   846     1 
  845   846     1 
  846   851     1 
  847   852     1 
  847   853     1 
  847   854     1 
  848   851     1 
  849   851     1 
  850   855     1 
  850   856     1 
  850   874     1 
  851   857     1 
  851   875     1 
  851   876     1 
  851   879     1 
  852   855     1 
  852   856     1 
  852   874     1 
  853   855     1 
  853   856     1 
  853   874     1 
  854   858     1 
  854   859     1 
  854   877     1 
  854   878     1 
  854   880     1 
  855   857     1 
  855   875     1 
  855   876     1 
  855   879     1 
  856   860     1 
  856   873     1 
  856   875     1 
  856   877     1 
  856   878     1 
  856   879     1 
  857   861     1 
  857   862     1 
  857   863     1 
  857   872     1 
  857   875     1 
  857   879     1 
  858   860     1 
  858   873     1 
  858   874     1 
  858   877     1 
  858   878     1 
  859   864     1 
  859   868     1 
  859   874     1 
  859   877     1 
  859   878     1 
  860   864     1 
  860   872     1 
  860   876     1 
  861   863     1 
  861   873     1 
  862   865     1 
  862   866     1 
  862   872     1 
  863   867     1 
  863   868     1 
  864   869     1 
  864   872     1 
  865   867     1 
  865   868     1 
  865   873     1 
  866   870     1 
  866   871     1 
  866   873     1 
  867   869     1 
  867   872     1 
  869   873     1 
  870   872     1 
  871   872     1 
  873   876     1 
  874   881     1 
  874   882     1 
  874   883     1 
  875   877     1 
  875   878     1 
  875   880     1 
  876   880     1 
  877   879     1 
  878   879     1 
  879   884     1 
  880   885     1 
  880   886     1 
  880   887     1 
  881   884     1 
  882   884     1 
  883   888     1 
  883   889     1 
  883   904     1 
  884   890     1 
  884   905     1 
  884   906     1 
  884   909     1 
  885   888     1 
  885   889     1 
  885   904     1 
  886   888     1 
  886   889     1 
  886   904     1 
  887   891     1 
  887   892     1 
  887   907     1 
  887   908     1 
  887   910     1 
  888   890     1 
  888   905     1 
  888   906     1 
  888   909     1 
  889   893     1 
  889   902     1 
  889   905     1 
  889   907     1 
  889   908     1 
  889   909     1 
  890   894     1 
  890   895     1 
  890   901     1 
  890   903     1 
  890   905     1 
  890   909     1 
  891   893     1 
  891   902     1 
  891   904     1 
  891   907     1 
  891   908     1 
  892   896     1 
  892   897     1 
  892   904     1 
  892   907     1 
  892   908     1 
  893   898     1 
  893   901     1 
  893   903     1 
  893   906     1 
  894   896     1 
  894   897     1 
  894   902     1 
  895   899     1 
  895   900     1 
  895   902     1 
  896   898     1 
  896   901     1 
  897   903     1 
  898   902     1 
  899   901     1 
  900   901     1 
  902   906     1 
  904   911     1 
  904   912     1 
  904   913     1 
  905   907     1 
  905   908     1 
  905   910     1 
  906   910     1 
  907   909     1 
  908   909     1 
  909   914     1 
  910   915     1 
  910   916     1 
  910   917     1 
  911   914     1 
  912   914     1 
  913   918     1 
  913   919     1 
  913   937     1 
  914   920     1 
  914   938     1 
  914   939     1 
  914   942     1 
  915   918     1 
  915   919     1 
  915   937     1 
  916   918     1 
  916   919     1 
  916   937     1 
  917   921     1 
  917   922     1 
  917   940     1 
  917   941     1 
  917   943     1 
  918   920     1 
  918   938     1 
  918   939     1 
  918   942     1 
  919   923     1 
  919   936     1 
  919   938     1 
  919   940     1 
  919   941     1 
  919   942     1 
  920   924     1 
  920   925     1 
  920   926     1 
  920   935     1 
  920   938     1 
  920   942     1 
  921   923     1 
  921   936     1 
  921   937     1 
  921   940     1 
  921   941     1 
  922   927     1 
  922   931     1 
  922   937     1 
  922   940     1 
  922   941     1 
  923   927     1 
  923   935     1 
  923   939     1 
  924   926     1 
  924   936     1 
  925   928     1 
  925   929     1 
  925   935     1 
  926   930     1 
  926   931     1 
  927   932     1 
  927   935     1 
  928   930     1 
  928   931     1 
  928   936     1 
  929   933     1 
  929   934     1 
  929   936     1 
  930   932     1 
  930   935     1 
  932   936     1 
  933   935     1 
  934   935     1 
  936   939     1 
  937   944     1 
  937   945     1 
  937   946     1 
  938   940     1 
  938   941     1 
  938   943     1 
  939   943     1 
  940   942     1 
  941   942     1 
  942   947     1 
  943   948     1 
  943   949     1 
  943   950     1 
  944   947     1 
  945   947     1 
  946   951     1 
  946   952     1 
  946   969     1 
  947   953     1 
  947   970     1 
  947   971     1 
  947   974     1 
  948   951     1 
  948   952     1 
  948   969     1 
  949   951     1 
  949   952     1 
  949   969     1 
  950   954     1 
  950   955     1 
  950   972     1 
  950   973     1 
  950   975     1 
  951   953     1 
  951   970     1 
  951   971     1 
  951   974     1 
  952   956     1 
  952   968     1 
  952   970     1 
  952   972     1 
  952   973     1 
  952   974     1 
  953   957     1 
  953   958     1 
  953   959     1 
  953   967     1 
  953   970     1 
  953   974     1 
  954   956     1 
  954   968     1 
  954   969     1 
  954   972     1 
  954   973     1 
  955   960     1 
  955   965     1 
  955   969     1 
  955   972     1 
  955   973     1 
  956   960     1 
  956   967     1 
  956   971     1 
  957   959     1 
  957   968     1 
  958   961     1 
  958   964     1 
  958   967     1 
  959   962     1 
  959   963     1 
  959   965     1 
  960   966     1 
  960   967     1 
  961   965     1 
  961   968     1 
  962   964     1 
  963   964     1 
  964   968     1 
  966   968     1 
  968   971     1 
  969   976     1 
  969   977     1 
  969   978     1 
  970   972     1 
  970   973     1 
  970   975     1 
  971   975     1 
  972   974     1 
  973   974     1 
  974   979     1 
  975   980     1 
  975   981     1 
  975   982     1 
  976   979     1 
  977   979     1 
  978   983     1 
  978   984     1 
  978  1002     1 
  979   985     1 
  979  1003     1 
  979  1004     1 
  979  1007     1 
  980   983     1 
  980   984     1 
  980  1002     1 
  981   983     1 
  981   984     1 
  981  1002     1 
  982   986     1 
  982   987     1 
  982  1005     1 
  982  1006     1 
  982  1008     1 
  983   985     1 
  983  1003     1 
  983  1004     1 
  983  1007     1 
  984   988     1 
  984  1001     1 
  984  1003     1 
  984  1005     1 
  984  1006     1 
  984  1007     1 
  985   989     1 
  985   990     1 
  985   991     1 
  985  1000     1 
  985  1003     1 
  985  1007     1 
  986   988     1 
  986  1001     1 
  986  1002     1 
  986  1005     1 
  986  1006     1 
  987   992     1 
  987   996     1 
  987  1002     1 
  987  1005     1 
  987  1006     1 
  988   992     1 
  988  1000     1 
  988  1004     1 
  989   991     1 
  989  1001     1 
  990   993     1 
  990   994     1 
  990  1000     1 
  991   995     1 
  991   996     1 
  992   997     1 
  992  1000     1 
  993   995     1 
  993   996     1 
  993  1001     1 
  994   998     1 
  994   999     1 
  994  1001     1 
  995   997     1 
  995  1000     1 
  997  1001     1 
  998  1000     1 
  999  1000     1 
 1001  1004     1 
 1002  1009     1 
 1002  1010     1 
 1002  1011     1 
 1003  1005     1 
 1003  1006     1 
 1003  1008     1 
 1004  1008     1 
 1005  1007     1 
 1006  1007     1 
 1007  1012     1 
 1008  1013     1 
 1008  1014     1 
 1008  1015     1 
 1009  1012     1 
 1010  1012     1 
 1011  1016     1 
 1011  1017     1 
 1011  1032     1 
 1012  1018     1 
 1012  1033     1 
 1012  1034     1 
 1012  1037     1 
 1013  1016     1 
 1013  1017     1 
 1013  1032     1 
 1014  1016     1 
 1014  1017     1 
 1014  1032     1 
 1015  1019     1 
 1015  1020     1 
 1015  1035     1 
 1015  1036     1 
 1015  1038     1 
 1016  1018     1 
 1016  1033     1 
 1016  1034     1 
 1016  1037     1 
 1017  1021     1 
 1017  1030     1 
 1017  1033     1 
 1017  1035     1 
 1017  1036     1 
 1017  1037     1 
 1018  1022     1 
 1018  1023     1 
 1018  1029     1 
 1018  1031     1 
 1018  1033     1 
 1018  1037     1 
 1019  1021     1 
 1019  1030     1 
 1019  1032     1 
 1019  1035     1 
 1019  1036     1 
 1020  1024     1 
 1020  1025     1 
 1020  1032     1 
 1020  1035     1 
 1020  1036     1 
 1021  1026     1 
 1021  1029     1 
 1021  1031     1 
 1021  1034     1 
 1022  1024     1 
 1022  1025     1 
 1022  1030     1 
 1023  1027     1 
 1023  1028     1 
 1023  1030     1 
 1024  1026     1 
 1024  1029     1 
 1025  1031     1 
 1026  1030     1 
 1027  1029     1 
 1028  1029     1 
 1030  1034     1 
 1032  1039     1 
 1032  1040     1 
 1032  1041     1 
 1033  1035     1 
 1033  1036     1 
 1033  1038     1 
 1034  1038     1 
 1035  1037     1 
 1036  1037     1 
 1037  1042     1 
 1038  1043     1 
 1038  1044     1 
 1038  1045     1 
 1039  1042     1 
 1040  1042     1 
 1041  1046     1 
 1041  1047     1 
 1041  1065     1 
 1042  1048     1 
 1042  1066     1 
 1042  1067     1 
 1042  1070     1 
 1043  1046     1 
 1043  1047     1 
 1043  1065     1 
 1044  1046     1 
 1044  1047     1 
 1044  1065     1 
 1045  1049     1 
 1045  1050     1 
 1045  1068     1 
 1045  1069     1 
 1045  1071     1 
 1046  1048     1 
 1046  1066     1 
 1046  1067     1 
 1046  1070     1 
 1047  1051     1 
 1047  1064     1 
 1047  1066     1 
 1047  1068     1 
 1047  1069     1 
 1047  1070     1 
 1048  1052     1 
 1048  1053     1 
 1048  1054     1 
 1048  1063     1 
 1048  1066     1 
 1048  1070     1 
 1049  1051     1 
 1049  1064     1 
 1049  1065     1 
 1049  1068     1 
 1049  1069     1 
 1050  1055     1 
 1050  1059     1 
 1050  1065     1 
 1050  1068     1 
 1050  1069     1 
 1051  1055     1 
 1051  1063     1 
 1051  1067     1 
 1052  1054     1 
 1052  1064     1 
 1053  1056     1 
 1053  1057     1 
 1053  1063     1 
 1054  1058     1 
 1054  1059     1 
 1055  1060     1 
 1055  1063     1 
 1056  1058     1 
 1056  1059     1 
 1056  1064     1 
 1057  1061     1 
 1057  1062     1 
 1057  1064     1 
 1058  1060     1 
 1058  1063     1 
 1060  1064     1 
 1061  1063     1 
 1062  1063     1 
 1064  1067     1 
 1065  1072     1 
 1065  1073     1 
 1065  1074     1 
 1066  1068     1 
 1066  1069     1 
 1066  1071     1 
 1067  1071     1 
 1068  1070     1 
 1069  1070     1 
 1070  1075     1 
 1071  1076     1 
 1071  1077     1 
 1071  1078     1 
 1072  1075     1 
 1073  1075     1 
 1074  1079     1 
 1074  1080     1 
 1074  1095     1 
 1075  1081     1 
 1075  1096     1 
 1075  1097     1 
 1075  1100     1 
 1076  1079     1 
 1076  1080     1 
 1076  1095     1 
 1077  1079     1 
 1077  1080     1 
 1077  1095     1 
 1078  1082     1 
 1078  1083     1 
 1078  1098     1 
 1078  1099     1 
 1078  1101     1 
 1079  1081     1 
 1079  1096     1 
 1079  1097     1 
 1079  1100     1 
 1080  1084     1 
 1080  1093     1 
 1080  1096     1 
 1080  1098     1 
 1080  1099     1 
 1080  1100     1 
 1081  1085     1 
 1081  1086     1 
 1081  1092     1 
 1081  1094     1 
 1081  1096     1 
 1081  1100     1 
 1082  1084     1 
 1082  1093     1 
 1082  1095     1 
 1082  1098     1 
 1082  1099     1 
 1083  1087     1 
 1083  1088     1 
 1083  1095     1 
 1083  1098     1 
 1083  1099     1 
 1084  1089     1 
 1084  1092     1 
 1084  1094     1 
 1084  1097     1 
 1085  1087     1 
 1085  1088     1 
 1085  1093     1 
 1086  1090     1 
 1086  1091     1 
 1086  1093     1 
 1087  1089     1 
 1087  1092     1 
 1088  1094     1 
 1089  1093     1 
 1090  1092     1 
 1091  1092     1 
 1093  1097     1 
 1095  1102     1 
 1095  1103     1 
 1095  1104     1 
 1096  1098     1 
 1096  1099     1 
 1096  1101     1 
 1097  1101     1 
 1098  1100     1 
 1099  1100     1 
 1100  1105     1 
 1101  1106     1 
 1101  1107     1 
 1101  1108     1 
 1102  1105     1 
 1103  1105     1 
 1104  1109     1 
 1104  1110     1 
 1104  1128     1 
 1105  1111     1 
 1105  1129     1 
 1105  1130     1 
 1105  1133     1 
 1106  1109     1 
 1106  1110     1 
 1106  1128     1 
 1107  1109     1 
 1107  1110     1 
 1107  1128     1 
 1108  1112     1 
 1108  1113     1 
 1108  1131     1 
 1108  1132     1 
 1108  1134     1 
 1109  1111     1 
 1109  1129     1 
 1109  1130     1 
 1109  1133     1 
 1110  1114     1 
 1110  1127     1 
 1110  1129     1 
 1110  1131     1 
 1110  1132     1 
 1110  1133     1 
 1111  1115     1 
 1111  1116     1 
 1111  1117     1 
 1111  1126     1 
 1111  1129     1 
 1111  1133     1 
 1112  1114     1 
 1112  1127     1 
 1112  1128     1 
 1112  1131     1 
 1112  1132     1 
 1113  1118     1 
 1113  1122     1 
 1113  1128     1 
 1113  1131     1 
 1113  1132     1 
 1114  1118     1 
 1114  1126     1 
 1114  1130     1 
 1115  1117     1 
 1115  1127     1 
 1116  1119     1 
 1116  1120     1 
 1116  1126     1 
 1117  1121     1 
 1117  1122     1 
 1118  1123     1 
 1118  1126     1 
 1119  1121     1 
 1119  1122     1 
 1119  1127     1 
 1120  1124     1 
 1120  1125     1 
 1120  1127     1 
 1121  1123     1 
 1121  1126     1 
 1123  1127     1 
 1124  1126     1 
 1125  1126     1 
 1127  1130     1 
 1128  1135     1 
 1128  1136     1 
 1128  1137     1 
 1129  1131     1 
 1129  1132     1 
 1129  1134     1 
 1130  1134     1 
 1131  1133     1 
 1132  1133     1 
 1133  1138     1 
 1134  1139     1 
 1134  1140     1 
 1134  1141     1 
 1135  1138     1 
 1136  1138     1 
 1137  1142     1 
 1137  1143     1 
 1137  1161     1 
 1138  1144     1 
 1138  1162     1 
 1138  1163     1 
 1138  1166     1 
 1139  1142     1 
 1139  1143     1 
 1139  1161     1 
 1140  1142     1 
 1140  1143     1 
 1140  1161     1 
 1141  1145     1 
 1141  1146     1 
 1141  1164     1 
 1141  1165     1 
 1141  1167     1 
 1142  1144     1 
 1142  1162     1 
 1142  1163     1 
 1142  1166     1 
 1143  1147     1 
 1143  1160     1 
 1143  1162     1 
 1143  1164     1 
 1143  1165     1 
 1143  1166     1 
 1144  1148     1 
 1144  1149     1 
 1144  1150     1 
 1144  1159     1 
 1144  1162     1 
 1144  1166     1 
 1145  1147     1 
 1145  1160     1 
 1145  1161     1 
 1145  1164     1 
 1145  1165     1 
 1146  1151     1 
 1146  1155     1 
 1146  1161     1 
 1146  1164     1 
 1146  1165     1 
 1147  1151     1 
 1147  1159     1 
 1147  1163     1 
 1148  1150     1 
 1148  1160     1 
 1149  1152     1 
 1149  1153     1 
 1149  1159     1 
 1150  1154     1 
 1150  1155     1 
 1151  1156     1 
 1151  1159     1 
 1152  1154     1 
 1152  1155     1 
 1152  1160     1 
 1153  1157     1 
 1153  1158     1 
 1153  1160     1 
 1154  1156     1 
 1154  1159     1 
 1156  1160     1 
 1157  1159     1 
 1158  1159     1 
 1160  1163     1 
 1161  1168     1 
 1161  1169     1 
 1161  1170     1 
 1162  1164     1 
 1162  1165     1 
 1162  1167     1 
 1163  1167     1 
 1164  1166     1 
 1165  1166     1 
 1166  1171     1 
 1167  1172     1 
 1167  1173     1 
 1167  1174     1 
 1168  1171     1 
 1169  1171     1 
 1170  1175     1 
 1170  1176     1 
 1170  1191     1 
 1171  1177     1 
 1171  1192     1 
 1171  1193     1 
 1171  1196     1 
 1172  1175     1 
 1172  1176     1 
 1172  1191     1 
 1173  1175     1 
 1173  1176     1 
 1173  1191     1 
 1174  1178     1 
 1174  1179     1 
 1174  1194     1 
 1174  1195     1 
 1174  1197     1 
 1175  1177     1 
 1175  1192     1 
 1175  1193     1 
 1175  1196     1 
 1176  1180     1 
 1176  1189     1 
 1176  1192     1 
 1176  1194     1 
 1176  1195     1 
 1176  1196     1 
 1177  1181     1 
 1177  1182     1 
 1177  1188     1 
 1177  1190     1 
 1177  1192     1 
 1177  1196     1 
 1178  1180     1 
 1178  1189     1 
 1178  1191     1 
 1178  1194     1 
 1178  1195     1 
 1179  1183     1 
 1179  1184     1 
 1179  1191     1 
 1179  1194     1 
 1179  1195     1 
 1180  1185     1 
 1180  1188     1 
 1180  1190     1 
 1180  1193     1 
 1181  1183     1 
 1181  1184     1 
 1181  1189     1 
 1182  1186     1 
 1182  1187     1 
 1182  1189     1 
 1183  1185     1 
 1183  1188     1 
 1184  1190     1 
 1185  1189     1 
 1186  1188     1 
 1187  1188     1 
 1189  1193     1 
 1191  1198     1 
 1191  1199     1 
 1191  1200     1 
 1192  1194     1 
 1192  1195     1 
 1192  1197     1 
 1193  1197     1 
 1194  1196     1 
 1195  1196     1 
 1196  1201     1 
 1197  1202     1 
 1197  1203     1 
 1197  1204     1 
 1198  1201     1 
 1199  1201     1 
 1200  1205     1 
 1200  1206     1 
 1200  1224     1 
 1201  1207     1 
 1201  1225     1 
 1201  1226     1 
 1201  1229     1 
 1202  1205     1 
 1202  1206     1 
 1202  1224     1 
 1203  1205     1 
 1203  1206     1 
 1203  1224     1 
 1204  1208     1 
 1204  1209     1 
 1204  1227     1 
 1204  1228     1 
 1204  1230     1 
 1205  1207     1 
 1205  1225     1 
 1205  1226     1 
 1205  1229     1 
 1206  1210     1 
 1206  1223     1 
 1206  1225     1 
 1206  1227     1 
 1206  1228     1 
 1206  1229     1 
 1207  1211     1 
 1207  1212     1 
 1207  1213     1 
 1207  1222     1 
 1207  1225     1 
 1207  1229     1 
 1208  1210     1 
 1208  1223     1 
 1208  1224     1 
 1208  1227     1 
 1208  1228     1 
 1209  1214     1 
 1209  1218     1 
 1209  1224     1 
 1209  1227     1 
 1209  1228     1 
 1210  1214     1 
 1210  1222     1 
 1210  1226     1 
 1211  1213     1 
 1211  1223     1 
 1212  1215     1 
 1212  1216     1 
 1212  1222     1 
 1213  1217     1 
 1213  1218     1 
 1214  1219     1 
 1214  1222     1 
 1215  1217     1 
 1215  1218     1 
 1215  1223     1 
 1216  1220     1 
 1216  1221     1 
 1216  1223     1 
 1217  1219     1 
 1217  1222     1 
 1219  1223     1 
 1220  1222     1 
 1221  1222     1 
 1223  1226     1 
 1224  1231     1 
 1224  1232     1 
 1224  1233     1 
 1225  1227     1 
 1225  1228     1 
 1225  1230     1 
 1226  1230     1 
 1227  1229     1 
 1228  1229     1 
 1229  1234     1 
 1230  1235     1 
 1230  1236     1 
 1230  1237     1 
 1231  1234     1 
 1232  1234     1 
 1233  1238     1 
 1233  1239     1 
 1233  1254     1 
 1234  1240     1 
 1234  1255     1 
 1234  1256     1 
 1234  1259     1 
 1235  1238     1 
 1235  1239     1 
 1235  1254     1 
 1236  1238     1 
 1236  1239     1 
 1236  1254     1 
 1237  1241     1 
 1237  1242     1 
 1237  1257     1 
 1237  1258     1 
 1237  1260     1 
 1238  1240     1 
 1238  1255     1 
 1238  1256     1 
 1238  1259     1 
 1239  1243     1 
 1239  1252     1 
 1239  1255     1 
 1239  1257     1 
 1239  1258     1 
 1239  1259     1 
 1240  1244     1 
 1240  1245     1 
 1240  1251     1 
 1240  1253     1 
 1240  1255     1 
 1240  1259     1 
 1241  1243     1 
 1241  1252     1 
 1241  1254     1 
 1241  1257     1 
 1241  1258     1 
 1242  1246     1 
 1242  1247     1 
 1242  1254     1 
 1242  1257     1 
 1242  1258     1 
 1243  1248     1 
 1243  1251     1 
 1243  1253     1 
 1243  1256     1 
 1244  1246     1 
 1244  1247     1 
 1244  1252     1 
 1245  1249     1 
 1245  1250     1 
 1245  1252     1 
 1246  1248     1 
 1246  1251     1 
 1247  1253     1 
 1248  1252     1 
 1249  1251     1 
 1250  1251     1 
 1252  1256     1 
 1254  1261     1 
 1254  1262     1 
 1254  1263     1 
 1255  1257     1 
 1255  1258     1 
 1255  1260     1 
 1256  1260     1 
 1257  1259     1 
 1258  1259     1 
 1259  1264     1 
 1260  1265     1 
 1260  1266     1 
 1260  1267     1 
 1261  1264     1 
 1262  1264     1 
 1263  1268     1 
 1263  1269     1 
 1263  1286     1 
 1264  1270     1 
 1264  1287     1 
 1264  1288     1 
 1264  1291     1 
 1265  1268     1 
 1265  1269     1 
 1265  1286     1 
 1266  1268     1 
 1266  1269     1 
 1266  1286     1 
 1267  1271     1 
 1267  1272     1 
 1267  1289     1 
 1267  1290     1 
 1267  1292     1 
 1268  1270     1 
 1268  1287     1 
 1268  1288     1 
 1268  1291     1 
 1269  1273     1 
 1269  1285     1 
 1269  1287     1 
 1269  1289     1 
 1269  1290     1 
 1269  1291     1 
 1270  1274     1 
 1270  1275     1 
 1270  1276     1 
 1270  1284     1 
 1270  1287     1 
 1270  1291     1 
 1271  1273     1 
 1271  1285     1 
 1271  1286     1 
 1271  1289     1 
 1271  1290     1 
 1272  1277     1 
 1272  1282     1 
 1272  1286     1 
 1272  1289     1 
 1272  1290     1 
 1273  1277     1 
 1273  1284     1 
 1273  1288     1 
 1274  1276     1 
 1274  1285     1 
 1275  1278     1 
 1275  1281     1 
 1275  1284     1 
 1276  1279     1 
 1276  1280     1 
 1276  1282     1 
 1277  1283     1 
 1277  1284     1 
 1278  1282     1 
 1278  1285     1 
 1279  1281     1 
 1280  1281     1 
 1281  1285     1 
 1283  1285     1 
 1285  1288     1 
 1286  1293     1 
 1286  1294     1 
 1286  1295     1 
 1287  1289     1 
 1287  1290     1 
 1287  1292     1 
 1288  1292     1 
 1289  1291     1 
 1290  1291     1 
 1291  1296     1 
 1292  1297     1 
 1292  1298     1 
 1292  1299     1 
 1293  1296     1 
 1294  1296     1 
 1295  1300     1 
 1295  1301     1 
 1295  1319     1 
 1296  1302     1 
 1296  1320     1 
 1296  1321     1 
 1296  1324     1 
 1297  1300     1 
 1297  1301     1 
 1297  1319     1 
 1298  1300     1 
 1298  1301     1 
 1298  1319     1 
 1299  1303     1 
 1299  1304     1 
 1299  1322     1 
 1299  1323     1 
 1299  1325     1 
 1300  1302     1 
 1300  1320     1 
 1300  1321     1 
 1300  1324     1 
 1301  1305     1 
 1301  1318     1 
 1301  1320     1 
 1301  1322     1 
 1301  1323     1 
 1301  1324     1 
 1302  1306     1 
 1302  1307     1 
 1302  1308     1 
 1302  1317     1 
 1302  1320     1 
 1302  1324     1 
 1303  1305     1 
 1303  1318     1 
 1303  1319     1 
 1303  1322     1 
 1303  1323     1 
 1304  1309     1 
 1304  1313     1 
 1304  1319     1 
 1304  1322     1 
 1304  1323     1 
 1305  1309     1 
 1305  1317     1 
 1305  1321     1 
 1306  1308     1 
 1306  1318     1 
 1307  1310     1 
 1307  1311     1 
 1307  1317     1 
 1308  1312     1 
 1308  1313     1 
 1309  1314     1 
 1309  1317     1 
 1310  1312     1 
 1310  1313     1 
 1310  1318     1 
 1311  1315     1 
 1311  1316     1 
 1311  1318     1 
 1312  1314     1 
 1312  1317     1 
 1314  1318     1 
 1315  1317     1 
 1316  1317     1 
 1318  1321     1 
 1319  1326     1 
 1319  1327     1 
 1319  1328     1 
 1320  1322     1 
 1320  1323     1 
 1320  1325     1 
 1321  1325     1 
 1322  1324     1 
 1323  1324     1 
 1324  1329     1 
 1325  1330     1 
 1325  1331     1 
 1325  1332     1 
 1326  1329     1 
 1327  1329     1 
 1328  1333     1 
 1328  1334     1 
 1328  1352     1 
 1329  1335     1 
 1329  1353     1 
 1329  1354     1 
 1329  1357     1 
 1330  1333     1 
 1330  1334     1 
 1330  1352     1 
 1331  1333     1 
 1331  1334     1 
 1331  1352     1 
 1332  1336     1 
 1332  1337     1 
 1332  1355     1 
 1332  1356     1 
 1332  1358     1 
 1333  1335     1 
 1333  1353     1 
 1333  1354     1 
 1333  1357     1 
 1334  1338     1 
 1334  1351     1 
 1334  1353     1 
 1334  1355     1 
 1334  1356     1 
 1334  1357     1 
 1335  1339     1 
 1335  1340     1 
 1335  1341     1 
 1335  1350     1 
 1335  1353     1 
 1335  1357     1 
 1336  1338     1 
 1336  1351     1 
 1336  1352     1 
 1336  1355     1 
 1336  1356     1 
 1337  1342     1 
 1337  1346     1 
 1337  1352     1 
 1337  1355     1 
 1337  1356     1 
 1338  1342     1 
 1338  1350     1 
 1338  1354     1 
 1339  1341     1 
 1339  1351     1 
 1340  1343     1 
 1340  1344     1 
 1340  1350     1 
 1341  1345     1 
 1341  1346     1 
 1342  1347     1 
 1342  1350     1 
 1343  1345     1 
 1343  1346     1 
 1343  1351     1 
 1344  1348     1 
 1344  1349     1 
 1344  1351     1 
 1345  1347     1 
 1345  1350     1 
 1347  1351     1 
 1348  1350     1 
 1349  1350     1 
 1351  1354     1 
 1352  1359     1 
 1352  1360     1 
 1352  1361     1 
 1353  1355     1 
 1353  1356     1 
 1353  1358     1 
 1354  1358     1 
 1355  1357     1 
 1356  1357     1 
 1357  1362     1 
 1358  1363     1 
 1358  1364     1 
 1358  1365     1 
 1359  1362     1 
 1360  1362     1 
 1361  1366     1 
 1361  1367     1 
 1361  1382     1 
 1362  1368     1 
 1362  1383     1 
 1362  1384     1 
 1362  1387     1 
 1363  1366     1 
 1363  1367     1 
 1363  1382     1 
 1364  1366     1 
 1364  1367     1 
 1364  1382     1 
 1365  1369     1 
 1365  1370     1 
 1365  1385     1 
 1365  1386     1 
 1365  1388     1 
 1366  1368     1 
 1366  1383     1 
 1366  1384     1 
 1366  1387     1 
 1367  1371     1 
 1367  1380     1 
 1367  1383     1 
 1367  1385     1 
 1367  1386     1 
 1367  1387     1 
 1368  1372     1 
 1368  1373     1 
 1368  1379     1 
 1368  1381     1 
 1368  1383     1 
 1368  1387     1 
 1369  1371     1 
 1369  1380     1 
 1369  1382     1 
 1369  1385     1 
 1369  1386     1 
 1370  1374     1 
 1370  1375     1 
 1370  1382     1 
 1370  1385     1 
 1370  1386     1 
 1371  1376     1 
 1371  1379     1 
 1371  1381     1 
 1371  1384     1 
 1372  1374     1 
 1372  1375     1 
 1372  1380     1 
 1373  1377     1 
 1373  1378     1 
 1373  1380     1 
 1374  1376     1 
 1374  1379     1 
 1375  1381     1 
 1376  1380     1 
 1377  1379     1 
 1378  1379     1 
 1380  1384     1 
 1382  1389     1 
 1382  1390     1 
 1382  1391     1 
 1383  1385     1 
 1383  1386     1 
 1383  1388     1 
 1384  1388     1 
 1385  1387     1 
 1386  1387     1 
 1387  1392     1 
 1388  1393     1 
 1388  1394     1 
 1388  1395     1 
 1389  1392     1 
 1390  1392     1 
 1391  1396     1 
 1391  1397     1 
 1391  1414     1 
 1392  1398     1 
 1392  1415     1 
 1392  1416     1 
 1392  1419     1 
 1393  1396     1 
 1393  1397     1 
 1393  1414     1 
 1394  1396     1 
 1394  1397     1 
 1394  1414     1 
 1395  1399     1 
 1395  1400     1 
 1395  1417     1 
 1395  1418     1 
 1395  1420     1 
 1396  1398     1 
 1396  1415     1 
 1396  1416     1 
 1396  1419     1 
 1397  1401     1 
 1397  1413     1 
 1397  1415     1 
 1397  1417     1 
 1397  1418     1 
 1397  1419     1 
 1398  1402     1 
 1398  1403     1 
 1398  1404     1 
 1398  1412     1 
 1398  1415     1 
 1398  1419     1 
 1399  1401     1 
 1399  1413     1 
 1399  1414     1 
 1399  1417     1 
 1399  1418     1 
 1400  1405     1 
 1400  1410     1 
 1400  1414     1 
 1400  1417     1 
 1400  1418     1 
 1401  1405     1 
 1401  1412     1 
 1401  1416     1 
 1402  1404     1 
 1402  1413     1 
 1403  1406     1 
 1403  1409     1 
 1403  1412     1 
 1404  1407     1 
 1404  1408     1 
 1404  1410     1 
 1405  1411     1 
 1405  1412     1 
 1406  1410     1 
 1406  1413     1 
 1407  1409     1 
 1408  1409     1 
 1409  1413     1 
 1411  1413     1 
 1413  1416     1 
 1414  1421     1 
 1414  1422     1 
 1414  1423     1 
 1415  1417     1 
 1415  1418     1 
 1415  1420     1 
 1416  1420     1 
 1417  1419     1 
 1418  1419     1 
 1419  1424     1 
 1420  1425     1 
 1420  1426     1 
 1420  1427     1 
 1421  1424     1 
 1422  1424     1 
 1423  1428     1 
 1423  1429     1 
 1423  1444     1 
 1424  1430     1 
 1424  1445     1 
 1424  1446     1 
 1424  1449     1 
 1425  1428     1 
 1425  1429     1 
 1425  1444     1 
 1426  1428     1 
 1426  1429     1 
 1426  1444     1 
 1427  1431     1 
 1427  1432     1 
 1427  1447     1 
 1427  1448     1 
 1427  1450     1 
 1428  1430     1 
 1428  1445     1 
 1428  1446     1 
 1428  1449     1 
 1429  1433     1 
 1429  1442     1 
 1429  1445     1 
 1429  1447     1 
 1429  1448     1 
 1429  1449     1 
 1430  1434     1 
 1430  1435     1 
 1430  1441     1 
 1430  1443     1 
 1430  1445     1 
 1430  1449     1 
 1431  1433     1 
 1431  1442     1 
 1431  1444     1 
 1431  1447     1 
 1431  1448     1 
 1432  1436     1 
 1432  1437     1 
 1432  1444     1 
 1432  1447     1 
 1432  1448     1 
 1433  1438     1 
 1433  1441     1 
 1433  1443     1 
 1433  1446     1 
 1434  1436     1 
 1434  1437     1 
 1434  1442     1 
 1435  1439     1 
 1435  1440     1 
 1435  1442     1 
 1436  1438     1 
 1436  1441     1 
 1437  1443     1 
 1438  1442     1 
 1439  1441     1 
 1440  1441     1 
 1442  1446     1 
 1444  1451     1 
 1444  1452     1 
 1444  1453     1 
 1445  1447     1 
 1445  1448     1 
 1445  1450     1 
 1446  1450     1 
 1447  1449     1 
 1448  1449     1 
 1449  1454     1 
 1450  1455     1 
 1450  1456     1 
 1450  1457     1 
 1451  1454     1 
 1452  1454     1 
 1453  1458     1 
 1453  1459     1 
 1453  1476     1 
 1454  1460     1 
 1454  1477     1 
 1454  1478     1 
 1454  1481     1 
 1455  1458     1 
 1455  1459     1 
 1455  1476     1 
 1456  1458     1 
 1456  1459     1 
 1456  1476     1 
 1457  1461     1 
 1457  1462     1 
 1457  1479     1 
 1457  1480     1 
 1457  1482     1 
 1458  1460     1 
 1458  1477     1 
 1458  1478     1 
 1458  1481     1 
 1459  1463     1 
 1459  1474     1 
 1459  1477     1 
 1459  1479     1 
 1459  1480     1 
 1459  1481     1 
 1460  1464     1 
 1460  1465     1 
 1460  1472     1 
 1460  1475     1 
 1460  1477     1 
 1460  1481     1 
 1461  1463     1 
 1461  1474     1 
 1461  1476     1 
 1461  1479     1 
 1461  1480     1 
 1462  1466     1 
 1462  1470     1 
 1462  1473     1 
 1462  1476     1 
 1462  1479     1 
 1462  1480     1 
 1463  1467     1 
 1463  1468     1 
 1463  1469     1 
 1463  1471     1 
 1463  1472     1 
 1463  1475     1 
 1463  1478     1 
 1464  1466     1 
 1464  1470     1 
 1464  1474     1 
 1465  1473     1 
 1465  1474     1 
 1466  1471     1 
 1466  1472     1 
 1467  1470     1 
 1468  1470     1 
 1469  1470     1 
 1470  1475     1 
 1471  1473     1 
 1471  1474     1 
 1473  1475     1 
 1474  1478     1 
 1476  1483     1 
 1476  1484     1 
 1476  1485     1 
 1477  1479     1 
 1477  1480     1 
 1477  1482     1 
 1478  1482     1 
 1479  1481     1 
 1480  1481     1 
 1481  1486     1 
 1482  1487     1 
 1482  1488     1 
 1482  1489     1 
 1483  1486     1 
 1484  1486     1 
 1485  1490     1 
 1485  1491     1 
 1485  1509     1 
 1486  1492     1 
 1486  1510     1 
 1486  1511     1 
 1486  1514     1 
 1487  1490     1 
 1487  1491     1 
 1487  1509     1 
 1488  1490     1 
 1488  1491     1 
 1488  1509     1 
 1489  1493     1 
 1489  1494     1 
 1489  1512     1 
 1489  1513     1 
 1489  1515     1 
 1490  1492     1 
 1490  1510     1 
 1490  1511     1 
 1490  1514     1 
 1491  1495     1 
 1491  1508     1 
 1491  1510     1 
 1491  1512     1 
 1491  1513     1 
 1491  1514     1 
 1492  1496     1 
 1492  1497     1 
 1492  1498     1 
 1492  1507     1 
 1492  1510     1 
 1492  1514     1 
 1493  1495     1 
 1493  1508     1 
 1493  1509     1 
 1493  1512     1 
 1493  1513     1 
 1494  1499     1 
 1494  1503     1 
 1494  1509     1 
 1494  1512     1 
 1494  1513     1 
 1495  1499     1 
 1495  1507     1 
 1495  1511     1 
 1496  1498     1 
 1496  1508     1 
 1497  1500     1 
 1497  1501     1 
 1497  1507     1 
 1498  1502     1 
 1498  1503     1 
 1499  1504     1 
 1499  1507     1 
 1500  1502     1 
 1500  1503     1 
 1500  1508     1 
 1501  1505     1 
 1501  1506     1 
 1501  1508     1 
 1502  1504     1 
 1502  1507     1 
 1504  1508     1 
 1505  1507     1 
 1506  1507     1 
 1508  1511     1 
 1509  1516     1 
 1509  1517     1 
 1509  1518     1 
 1510  1512     1 
 1510  1513     1 
 1510  1515     1 
 1511  1515     1 
 1512  1514     1 
 1513  1514     1 
 1514  1519     1 
 1515  1520     1 
 1515  1521     1 
 1515  1522     1 
 1516  1519     1 
 1517  1519     1 
 1518  1523     1 
 1518  1524     1 
 1518  1541     1 
 1519  1525     1 
 1519  1542     1 
 1519  1543     1 
 1519  1546     1 
 1520  1523     1 
 1520  1524     1 
 1520  1541     1 
 1521  1523     1 
 1521  1524     1 
 1521  1541     1 
 1522  1526     1 
 1522  1527     1 
 1522  1544     1 
 1522  1545     1 
 1522  1547     1 
 1523  1525     1 
 1523  1542     1 
 1523  1543     1 
 1523  1546     1 
 1524  1528     1 
 1524  1540     1 
 1524  1542     1 
 1524  1544     1 
 1524  1545     1 
 1524  1546     1 
 1525  1529     1 
 1525  1530     1 
 1525  1531     1 
 1525  1539     1 
 1525  1542     1 
 1525  1546     1 
 1526  1528     1 
 1526  1540     1 
 1526  1541     1 
 1526  1544     1 
 1526  1545     1 
 1527  1532     1 
 1527  1537     1 
 1527  1541     1 
 1527  1544     1 
 1527  1545     1 
 1528  1532     1 
 1528  1539     1 
 1528  1543     1 
 1529  1531     1 
 1529  1540     1 
 1530  1533     1 
 1530  1536     1 
 1530  1539     1 
 1531  1534     1 
 1531  1535     1 
 1531  1537     1 
 1532  1538     1 
 1532  1539     1 
 1533  1537     1 
 1533  1540     1 
 1534  1536     1 
 1535  1536     1 
 1536  1540     1 
 1538  1540     1 
 1540  1543     1 
 1541  1548     1 
 1541  1549     1 
 1541  1550     1 
 1542  1544     1 
 1542  1545     1 
 1542  1547     1 
 1543  1547     1 
 1544  1546     1 
 1545  1546     1 
 1546  1551     1 
 1547  1552     1 
 1547  1553     1 
 1547  1554     1 
 1548  1551     1 
 1549  1551     1 
 1550  1555     1 
 1550  1556     1 
 1550  1573     1 
 1551  1557     1 
 1551  1574     1 
 1551  1575     1 
 1551  1578     1 
 1552  1555     1 
 1552  1556     1 
 1552  1573     1 
 1553  1555     1 
 1553  1556     1 
 1553  1573     1 
 1554  1558     1 
 1554  1559     1 
 1554  1576     1 
 1554  1577     1 
 1554  1579     1 
 1555  1557     1 
 1555  1574     1 
 1555  1575     1 
 1555  1578     1 
 1556  1560     1 
 1556  1572     1 
 1556  1574     1 
 1556  1576     1 
 1556  1577     1 
 1556  1578     1 
 1557  1561     1 
 1557  1562     1 
 1557  1563     1 
 1557  1571     1 
 1557  1574     1 
 1557  1578     1 
 1558  1560     1 
 1558  1572     1 
 1558  1573     1 
 1558  1576     1 
 1558  1577     1 
 1559  1564     1 
 1559  1569     1 
 1559  1573     1 
 1559  1576     1 
 1559  1577     1 
 1560  1564     1 
 1560  1571     1 
 1560  1575     1 
 1561  1563     1 
 1561  1572     1 
 1562  1565     1 
 1562  1568     1 
 1562  1571     1 
 1563  1566     1 
 1563  1567     1 
 1563  1569     1 
 1564  1570     1 
 1564  1571     1 
 1565  1569     1 
 1565  1572     1 
 1566  1568     1 
 1567  1568     1 
 1568  1572     1 
 1570  1572     1 
 1572  1575     1 
 1573  1580     1 
 1573  1581     1 
 1573  1582     1 
 1574  1576     1 
 1574  1577     1 
 1574  1579     1 
 1575  1579     1 
 1576  1578     1 
 1577  1578     1 
 1578  1583     1 
 1579  1584     1 
 1579  1585     1 
 1579  1586     1 
 1580  1583     1 
 1581  1583     1 
 1582  1587     1 
 1582  1588     1 
 1582  1606     1 
 1583  1589     1 
 1583  1607     1 
 1583  1608     1 
 1583  1611     1 
 1584  1587     1 
 1584  1588     1 
 1584  1606     1 
 1585  1587     1 
 1585  1588     1 
 1585  1606     1 
 1586  1590     1 
 1586  1591     1 
 1586  1609     1 
 1586  1610     1 
 1586  1612     1 
 1587  1589     1 
 1587  1607     1 
 1587  1608     1 
 1587  1611     1 
 1588  1592     1 
 1588  1605     1 
 1588  1607     1 
 1588  1609     1 
 1588  1610     1 
 1588  1611     1 
 1589  1593     1 
 1589  1594     1 
 1589  1595     1 
 1589  1604     1 
 1589  1607     1 
 1589  1611     1 
 1590  1592     1 
 1590  1605     1 
 1590  1606     1 
 1590  1609     1 
 1590  1610     1 
 1591  1596     1 
 1591  1600     1 
 1591  1606     1 
 1591  1609     1 
 1591  1610     1 
 1592  1596     1 
 1592  1604     1 
 1592  1608     1 
 1593  1595     1 
 1593  1605     1 
 1594  1597     1 
 1594  1598     1 
 1594  1604     1 
 1595  1599     1 
 1595  1600     1 
 1596  1601     1 
 1596  1604     1 
 1597  1599     1 
 1597  1600     1 
 1597  1605     1 
 1598  1602     1 
 1598  1603     1 
 1598  1605     1 
 1599  1601     1 
 1599  1604     1 
 1601  1605     1 
 1602  1604     1 
 1603  1604     1 
 1605  1608     1 
 1606  1613     1 
 1606  1614     1 
 1606  1615     1 
 1607  1609     1 
 1607  1610     1 
 1607  1612     1 
 1608  1612     1 
 1609  1611     1 
 1610  1611     1 
 1611  1616     1 
 1612  1617     1 
 1612  1618     1 
 1612  1619     1 
 1613  1616     1 
 1614  1616     1 
 1615  1620     1 
 1615  1621     1 
 1615  1639     1 
 1616  1622     1 
 1616  1640     1 
 1616  1641     1 
 1616  1644     1 
 1617  1620     1 
 1617  1621     1 
 1617  1639     1 
 1618  1620     1 
 1618  1621     1 
 1618  1639     1 
 1619  1623     1 
 1619  1624     1 
 1619  1642     1 
 1619  1643     1 
 1619  1645     1 
 1620  1622     1 
 1620  1640     1 
 1620  1641     1 
 1620  1644     1 
 1621  1625     1 
 1621  1638     1 
 1621  1640     1 
 1621  1642     1 
 1621  1643     1 
 1621  1644     1 
 1622  1626     1 
 1622  1627     1 
 1622  1628     1 
 1622  1637     1 
 1622  1640     1 
 1622  1644     1 
 1623  1625     1 
 1623  1638     1 
 1623  1639     1 
 1623  1642     1 
 1623  1643     1 
 1624  1629     1 
 1624  1633     1 
 1624  1639     1 
 1624  1642     1 
 1624  1643     1 
 1625  1629     1 
 1625  1637     1 
 1625  1641     1 
 1626  1628     1 
 1626  1638     1 
 1627  1630     1 
 1627  1631     1 
 1627  1637     1 
 1628  1632     1 
 1628  1633     1 
 1629  1634     1 
 1629  1637     1 
 1630  1632     1 
 1630  1633     1 
 1630  1638     1 
 1631  1635     1 
 1631  1636     1 
 1631  1638     1 
 1632  1634     1 
 1632  1637     1 
 1634  1638     1 
 1635  1637     1 
 1636  1637     1 
 1638  1641     1 
 1639  1646     1 
 1639  1647     1 
 1639  1648     1 
 1640  1642     1 
 1640  1643     1 
 1640  1645     1 
 1641  1645     1 
 1642  1644     1 
 1643  1644     1 
 1644  1649     1 
 1645  1650     1 
 1645  1651     1 
 1645  1652     1 
 1646  1649     1 
 1647  1649     1 
 1648  1653     1 
 1648  1654     1 
 1648  1669     1 
 1649  1655     1 
 1649  1670     1 
 1649  1671     1 
 1649  1674     1 
 1650  1653     1 
 1650  1654     1 
 1650  1669     1 
 1651  1653     1 
 1651  1654     1 
 1651  1669     1 
 1652  1656     1 
 1652  1657     1 
 1652  1672     1 
 1652  1673     1 
 1652  1675     1 
 1653  1655     1 
 1653  1670     1 
 1653  1671     1 
 1653  1674     1 
 1654  1658     1 
 1654  1667     1 
 1654  1670     1 
 1654  1672     1 
 1654  1673     1 
 1654  1674     1 
 1655  1659     1 
 1655  1660     1 
 1655  1666     1 
 1655  1668     1 
 1655  1670     1 
 1655  1674     1 
 1656  1658     1 
 1656  1667     1 
 1656  1669     1 
 1656  1672     1 
 1656  1673     1 
 1657  1661     1 
 1657  1662     1 
 1657  1669     1 
 1657  1672     1 
 1657  1673     1 
 1658  1663     1 
 1658  1666     1 
 1658  1668     1 
 1658  1671     1 
 1659  1661     1 
 1659  1662     1 
 1659  1667     1 
 1660  1664     1 
 1660  1665     1 
 1660  1667     1 
 1661  1663     1 
 1661  1666     1 
 1662  1668     1 
 1663  1667     1 
 1664  1666     1 
 1665  1666     1 
 1667  1671     1 
 1669  1676     1 
 1669  1677     1 
 1669  1678     1 
 1670  1672     1 
 1670  1673     1 
 1670  1675     1 
 1671  1675     1 
 1672  1674     1 
 1673  1674     1 
 1674  1679     1 
 1675  1680     1 
 1675  1681     1 
 1675  1682     1 
 1676  1679     1 
 1677  1679     1 
 1678  1683     1 
 1678  1684     1 
 1678  1702     1 
 1679  1685     1 
 1679  1703     1 
 1679  1704     1 
 1679  1707     1 
 1680  1683     1 
 1680  1684     1 
 1680  1702     1 
 1681  1683     1 
 1681  1684     1 
 1681  1702     1 
 1682  1686     1 
 1682  1687     1 
 1682  1705     1 
 1682  1706     1 
 1682  1708     1 
 1683  1685     1 
 1683  1703     1 
 1683  1704     1 
 1683  1707     1 
 1684  1688     1 
 1684  1701     1 
 1684  1703     1 
 1684  1705     1 
 1684  1706     1 
 1684  1707     1 
 1685  1689     1 
 1685  1690     1 
 1685  1691     1 
 1685  1700     1 
 1685  1703     1 
 1685  1707     1 
 1686  1688     1 
 1686  1701     1 
 1686  1702     1 
 1686  1705     1 
 1686  1706     1 
 1687  1692     1 
 1687  1696     1 
 1687  1702     1 
 1687  1705     1 
 1687  1706     1 
 1688  1692     1 
 1688  1700     1 
 1688  1704     1 
 1689  1691     1 
 1689  1701     1 
 1690  1693     1 
 1690  1694     1 
 1690  1700     1 
 1691  1695     1 
 1691  1696     1 
 1692  1697     1 
 1692  1700     1 
 1693  1695     1 
 1693  1696     1 
 1693  1701     1 
 1694  1698     1 
 1694  1699     1 
 1694  1701     1 
 1695  1697     1 
 1695  1700     1 
 1697  1701     1 
 1698  1700     1 
 1699  1700     1 
 1701  1704     1 
 1702  1709     1 
 1702  1710     1 
 1702  1711     1 
 1703  1705     1 
 1703  1706     1 
 1703  1708     1 
 1704  1708     1 
 1705  1707     1 
 1706  1707     1 
 1707  1712     1 
 1708  1713     1 
 1708  1714     1 
 1708  1715     1 
 1709  1712     1 
 1710  1712     1 
 1711  1716     1 
 1711  1717     1 
 1711  1735     1 
 1712  1718     1 
 1712  1736     1 
 1712  1737     1 
 1712  1740     1 
 1713  1716     1 
 1713  1717     1 
 1713  1735     1 
 1714  1716     1 
 1714  1717     1 
 1714  1735     1 
 1715  1719     1 
 1715  1720     1 
 1715  1738     1 
 1715  1739     1 
 1715  1741     1 
 1716  1718     1 
 1716  1736     1 
 1716  1737     1 
 1716  1740     1 
 1717  1721     1 
 1717  1734     1 
 1717  1736     1 
 1717  1738     1 
 1717  1739     1 
 1717  1740     1 
 1718  1722     1 
 1718  1723     1 
 1718  1724     1 
 1718  1733     1 
 1718  1736     1 
 1718  1740     1 
 1719  1721     1 
 1719  1734     1 
 1719  1735     1 
 1719  1738     1 
 1719  1739     1 
 1720  1725     1 
 1720  1729     1 
 1720  1735     1 
 1720  1738     1 
 1720  1739     1 
 1721  1725     1 
 1721  1733     1 
 1721  1737     1 
 1722  1724     1 
 1722  1734     1 
 1723  1726     1 
 1723  1727     1 
 1723  1733     1 
 1724  1728     1 
 1724  1729     1 
 1725  1730     1 
 1725  1733     1 
 1726  1728     1 
 1726  1729     1 
 1726  1734     1 
 1727  1731     1 
 1727  1732     1 
 1727  1734     1 
 1728  1730     1 
 1728  1733     1 
 1730  1734     1 
 1731  1733     1 
 1732  1733     1 
 1734  1737     1 
 1735  1742     1 
 1735  1743     1 
 1735  1744     1 
 1736  1738     1 
 1736  1739     1 
 1736  1741     1 
 1737  1741     1 
 1738  1740     1 
 1739  1740     1 
 1740  1745     1 
 1741  1746     1 
 1741  1747     1 
 1741  1748     1 
 1742  1745     1 
 1743  1745     1 
 1744  1749     1 
 1744  1750     1 
 1744  1765     1 
 1745  1751     1 
 1745  1766     1 
 1745  1767     1 
 1745  1770     1 
 1746  1749     1 
 1746  1750     1 
 1746  1765     1 
 1747  1749     1 
 1747  1750     1 
 1747  1765     1 
 1748  1752     1 
 1748  1753     1 
 1748  1768     1 
 1748  1769     1 
 1748  1771     1 
 1749  1751     1 
 1749  1766     1 
 1749  1767     1 
 1749  1770     1 
 1750  1754     1 
 1750  1763     1 
 1750  1766     1 
 1750  1768     1 
 1750  1769     1 
 1750  1770     1 
 1751  1755     1 
 1751  1756     1 
 1751  1762     1 
 1751  1764     1 
 1751  1766     1 
 1751  1770     1 
 1752  1754     1 
 1752  1763     1 
 1752  1765     1 
 1752  1768     1 
 1752  1769     1 
 1753  1757     1 
 1753  1758     1 
 1753  1765     1 
 1753  1768     1 
 1753  1769     1 
 1754  1759     1 
 1754  1762     1 
 1754  1764     1 
 1754  1767     1 
 1755  1757     1 
 1755  1758     1 
 1755  1763     1 
 1756  1760     1 
 1756  1761     1 
 1756  1763     1 
 1757  1759     1 
 1757  1762     1 
 1758  1764     1 
 1759  1763     1 
 1760  1762     1 
 1761  1762     1 
 1763  1767     1 
 1765  1772     1 
 1765  1773     1 
 1765  1774     1 
 1766  1768     1 
 1766  1769     1 
 1766  1771     1 
 1767  1771     1 
 1768  1770     1 
 1769  1770     1 
 1770  1775     1 
 1771  1776     1 
 1771  1777     1 
 1771  1778     1 
 1772  1775     1 
 1773  1775     1 
 1774  1779     1 
 1774  1780     1 
 1774  1798     1 
 1775  1781     1 
 1775  1799     1 
 1775  1800     1 
 1775  1803     1 
 1776  1779     1 
 1776  1780     1 
 1776  1798     1 
 1777  1779     1 
 1777  1780     1 
 1777  1798     1 
 1778  1782     1 
 1778  1783     1 
 1778  1801     1 
 1778  1802     1 
 1778  1804     1 
 1779  1781     1 
 1779  1799     1 
 1779  1800     1 
 1779  1803     1 
 1780  1784     1 
 1780  1797     1 
 1780  1799     1 
 1780  1801     1 
 1780  1802     1 
 1780  1803     1 
 1781  1785     1 
 1781  1786     1 
 1781  1787     1 
 1781  1796     1 
 1781  1799     1 
 1781  1803     1 
 1782  1784     1 
 1782  1797     1 
 1782  1798     1 
 1782  1801     1 
 1782  1802     1 
 1783  1788     1 
 1783  1792     1 
 1783  1798     1 
 1783  1801     1 
 1783  1802     1 
 1784  1788     1 
 1784  1796     1 
 1784  1800     1 
 1785  1787     1 
 1785  1797     1 
 1786  1789     1 
 1786  1790     1 
 1786  1796     1 
 1787  1791     1 
 1787  1792     1 
 1788  1793     1 
 1788  1796     1 
 1789  1791     1 
 1789  1792     1 
 1789  1797     1 
 1790  1794     1 
 1790  1795     1 
 1790  1797     1 
 1791  1793     1 
 1791  1796     1 
 1793  1797     1 
 1794  1796     1 
 1795  1796     1 
 1797  1800     1 
 1798  1805     1 
 1798  1806     1 
 1798  1807     1 
 1799  1801     1 
 1799  1802     1 
 1799  1804     1 
 1800  1804     1 
 1801  1803     1 
 1802  1803     1 
 1803  1808     1 
 1804  1809     1 
 1804  1810     1 
 1804  1811     1 
 1805  1808     1 
 1806  1808     1 
 1807  1812     1 
 1807  1813     1 
 1807  1831     1 
 1808  1814     1 
 1808  1832     1 
 1808  1833     1 
 1808  1836     1 
 1809  1812     1 
 1809  1813     1 
 1809  1831     1 
 1810  1812     1 
 1810  1813     1 
 1810  1831     1 
 1811  1815     1 
 1811  1816     1 
 1811  1834     1 
 1811  1835     1 
 1811  1837     1 
 1812  1814     1 
 1812  1832     1 
 1812  1833     1 
 1812  1836     1 
 1813  1817     1 
 1813  1830     1 
 1813  1832     1 
 1813  1834     1 
 1813  1835     1 
 1813  1836     1 
 1814  1818     1 
 1814  1819     1 
 1814  1820     1 
 1814  1829     1 
 1814  1832     1 
 1814  1836     1 
 1815  1817     1 
 1815  1830     1 
 1815  1831     1 
 1815  1834     1 
 1815  1835     1 
 1816  1821     1 
 1816  1825     1 
 1816  1831     1 
 1816  1834     1 
 1816  1835     1 
 1817  1821     1 
 1817  1829     1 
 1817  1833     1 
 1818  1820     1 
 1818  1830     1 
 1819  1822     1 
 1819  1823     1 
 1819  1829     1 
 1820  1824     1 
 1820  1825     1 
 1821  1826     1 
 1821  1829     1 
 1822  1824     1 
 1822  1825     1 
 1822  1830     1 
 1823  1827     1 
 1823  1828     1 
 1823  1830     1 
 1824  1826     1 
 1824  1829     1 
 1826  1830     1 
 1827  1829     1 
 1828  1829     1 
 1830  1833     1 
 1831  1838     1 
 1831  1839     1 
 1831  1840     1 
 1832  1834     1 
 1832  1835     1 
 1832  1837     1 
 1833  1837     1 
 1834  1836     1 
 1835  1836     1 
 1836  1841     1 
 1837  1842     1 
 1837  1843     1 
 1837  1844     1 
 1838  1841     1 
 1839  1841     1 
 1840  1845     1 
 1840  1846     1 
 1840  1861     1 
 1841  1847     1 
 1841  1862     1 
 1841  1863     1 
 1841  1866     1 
 1842  1845     1 
 1842  1846     1 
 1842  1861     1 
 1843  1845     1 
 1843  1846     1 
 1843  1861     1 
 1844  1848     1 
 1844  1849     1 
 1844  1864     1 
 1844  1865     1 
 1844  1867     1 
 1845  1847     1 
 1845  1862     1 
 1845  1863     1 
 1845  1866     1 
 1846  1850     1 
 1846  1859     1 
 1846  1862     1 
 1846  1864     1 
 1846  1865     1 
 1846  1866     1 
 1847  1851     1 
 1847  1852     1 
 1847  1858     1 
 1847  1860     1 
 1847  1862     1 
 1847  1866     1 
 1848  1850     1 
 1848  1859     1 
 1848  1861     1 
 1848  1864     1 
 1848  1865     1 
 1849  1853     1 
 1849  1854     1 
 1849  1861     1 
 1849  1864     1 
 1849  1865     1 
 1850  1855     1 
 1850  1858     1 
 1850  1860     1 
 1850  1863     1 
 1851  1853     1 
 1851  1854     1 
 1851  1859     1 
 1852  1856     1 
 1852  1857     1 
 1852  1859     1 
 1853  1855     1 
 1853  1858     1 
 1854  1860     1 
 1855  1859     1 
 1856  1858     1 
 1857  1858     1 
 1859  1863     1 
 1861  1868     1 
 1861  1869     1 
 1861  1870     1 
 1862  1864     1 
 1862  1865     1 
 1862  1867     1 
 1863  1867     1 
 1864  1866     1 
 1865  1866     1 
 1866  1871     1 
 1867  1872     1 
 1867  1873     1 
 1867  1874     1 
 1868  1871     1 
 1869  1871     1 
 1870  1875     1 
 1870  1876     1 
 1870  1894     1 
 1871  1877     1 
 1871  1895     1 
 1871  1896     1 
 1871  1899     1 
 1872  1875     1 
 1872  1876     1 
 1872  1894     1 
 1873  1875     1 
 1873  1876     1 
 1873  1894     1 
 1874  1878     1 
 1874  1879     1 
 1874  1897     1 
 1874  1898     1 
 1874  1900     1 
 1875  1877     1 
 1875  1895     1 
 1875  1896     1 
 1875  1899     1 
 1876  1880     1 
 1876  1893     1 
 1876  1895     1 
 1876  1897     1 
 1876  1898     1 
 1876  1899     1 
 1877  1881     1 
 1877  1882     1 
 1877  1883     1 
 1877  1892     1 
 1877  1895     1 
 1877  1899     1 
 1878  1880     1 
 1878  1893     1 
 1878  1894     1 
 1878  1897     1 
 1878  1898     1 
 1879  1884     1 
 1879  1888     1 
 1879  1894     1 
 1879  1897     1 
 1879  1898     1 
 1880  1884     1 
 1880  1892     1 
 1880  1896     1 
 1881  1883     1 
 1881  1893     1 
 1882  1885     1 
 1882  1886     1 
 1882  1892     1 
 1883  1887     1 
 1883  1888     1 
 1884  1889     1 
 1884  1892     1 
 1885  1887     1 
 1885  1888     1 
 1885  1893     1 
 1886  1890     1 
 1886  1891     1 
 1886  1893     1 
 1887  1889     1 
 1887  1892     1 
 1889  1893     1 
 1890  1892     1 
 1891  1892     1 
 1893  1896     1 
 1894  1901     1 
 1894  1902     1 
 1894  1903     1 
 1895  1897     1 
 1895  1898     1 
 1895  1900     1 
 1896  1900     1 
 1897  1899     1 
 1898  1899     1 
 1899  1904     1 
 1900  1905     1 
 1900  1906     1 
 1900  1907     1 
 1901  1904     1 
 1902  1904     1 
 1903  1908     1 
 1903  1909     1 
 1903  1927     1 
 1904  1910     1 
 1904  1928     1 
 1904  1929     1 
 1904  1932     1 
 1905  1908     1 
 1905  1909     1 
 1905  1927     1 
 1906  1908     1 
 1906  1909     1 
 1906  1927     1 
 1907  1911     1 
 1907  1912     1 
 1907  1930     1 
 1907  1931     1 
 1907  1933     1 
 1908  1910     1 
 1908  1928     1 
 1908  1929     1 
 1908  1932     1 
 1909  1913     1 
 1909  1926     1 
 1909  1928     1 
 1909  1930     1 
 1909  1931     1 
 1909  1932     1 
 1910  1914     1 
 1910  1915     1 
 1910  1916     1 
 1910  1925     1 
 1910  1928     1 
 1910  1932     1 
 1911  1913     1 
 1911  1926     1 
 1911  1927     1 
 1911  1930     1 
 1911  1931     1 
 1912  1917     1 
 1912  1921     1 
 1912  1927     1 
 1912  1930     1 
 1912  1931     1 
 1913  1917     1 
 1913  1925     1 
 1913  1929     1 
 1914  1916     1 
 1914  1926     1 
 1915  1918     1 
 1915  1919     1 
 1915  1925     1 
 1916  1920     1 
 1916  1921     1 
 1917  1922     1 
 1917  1925     1 
 1918  1920     1 
 1918  1921     1 
 1918  1926     1 
 1919  1923     1 
 1919  1924     1 
 1919  1926     1 
 1920  1922     1 
 1920  1925     1 
 1922  1926     1 
 1923  1925     1 
 1924  1925     1 
 1926  1929     1 
 1927  1934     1 
 1927  1935     1 
 1927  1936     1 
 1928  1930     1 
 1928  1931     1 
 1928  1933     1 
 1929  1933     1 
 1930  1932     1 
 1931  1932     1 
 1932  1937     1 
 1933  1938     1 
 1933  1939     1 
 1933  1940     1 
 1934  1937     1 
 1935  1937     1 
 1936  1941     1 
 1936  1942     1 
 1936  1960     1 
 1937  1943     1 
 1937  1961     1 
 1937  1962     1 
 1937  1965     1 
 1938  1941     1 
 1938  1942     1 
 1938  1960     1 
 1939  1941     1 
 1939  1942     1 
 1939  1960     1 
 1940  1944     1 
 1940  1945     1 
 1940  1963     1 
 1940  1964     1 
 1940  1966     1 
 1941  1943     1 
 1941  1961     1 
 1941  1962     1 
 1941  1965     1 
 1942  1946     1 
 1942  1959     1 
 1942  1961     1 
 1942  1963     1 
 1942  1964     1 
 1942  1965     1 
 1943  1947     1 
 1943  1948     1 
 1943  1949     1 
 1943  1958     1 
 1943  1961     1 
 1943  1965     1 
 1944  1946     1 
 1944  1959     1 
 1944  1960     1 
 1944  1963     1 
 1944  1964     1 
 1945  1950     1 
 1945  1954     1 
 1945  1960     1 
 1945  1963     1 
 1945  1964     1 
 1946  1950     1 
 1946  1958     1 
 1946  1962     1 
 1947  1949     1 
 1947  1959     1 
 1948  1951     1 
 1948  1952     1 
 1948  1958     1 
 1949  1953     1 
 1949  1954     1 
 1950  1955     1 
 1950  1958     1 
 1951  1953     1 
 1951  1954     1 
 1951  1959     1 
 1952  1956     1 
 1952  1957     1 
 1952  1959     1 
 1953  1955     1 
 1953  1958     1 
 1955  1959     1 
 1956  1958     1 
 1957  1958     1 
 1959  1962     1 
 1960  1967     1 
 1960  1968     1 
 1960  1969     1 
 1961  1963     1 
 1961  1964     1 
 1961  1966     1 
 1962  1966     1 
 1963  1965     1 
 1964  1965     1 
 1965  1970     1 
 1966  1971     1 
 1966  1972     1 
 1966  1973     1 
 1967  1970     1 
 1968  1970     1 
 1969  1974     1 
 1969  1975     1 
 1969  1993     1 
 1970  1976     1 
 1970  1994     1 
 1970  1995     1 
 1970  1998     1 
 1971  1974     1 
 1971  1975     1 
 1971  1993     1 
 1972  1974     1 
 1972  1975     1 
 1972  1993     1 
 1973  1977     1 
 1973  1978     1 
 1973  1996     1 
 1973  1997     1 
 1973  1999     1 
 1974  1976     1 
 1974  1994     1 
 1974  1995     1 
 1974  1998     1 
 1975  1979     1 
 1975  1992     1 
 1975  1994     1 
 1975  1996     1 
 1975  1997     1 
 1975  1998     1 
 1976  1980     1 
 1976  1981     1 
 1976  1982     1 
 1976  1991     1 
 1976  1994     1 
 1976  1998     1 
 1977  1979     1 
 1977  1992     1 
 1977  1993     1 
 1977  1996     1 
 1977  1997     1 
 1978  1983     1 
 1978  1987     1 
 1978  1993     1 
 1978  1996     1 
 1978  1997     1 
 1979  1983     1 
 1979  1991     1 
 1979  1995     1 
 1980  1982     1 
 1980  1992     1 
 1981  1984     1 
 1981  1985     1 
 1981  1991     1 
 1982  1986     1 
 1982  1987     1 
 1983  1988     1 
 1983  1991     1 
 1984  1986     1 
 1984  1987     1 
 1984  1992     1 
 1985  1989     1 
 1985  1990     1 
 1985  1992     1 
 1986  1988     1 
 1986  1991     1 
 1988  1992     1 
 1989  1991     1 
 1990  1991     1 
 1992  1995     1 
 1993  2000     1 
 1993  2001     1 
 1993  2002     1 
 1994  1996     1 
 1994  1997     1 
 1994  1999     1 
 1995  1999     1 
 1996  1998     1 
 1997  1998     1 
 1998  2003     1 
 1999  2004     1 
 1999  2005     1 
 1999  2006     1 
 2000  2003     1 
 2001  2003     1 
 2002  2007     1 
 2002  2008     1 
 2002  2023     1 
 2003  2009     1 
 2003  2024     1 
 2003  2025     1 
 2003  2028     1 
 2004  2007     1 
 2004  2008     1 
 2004  2023     1 
 2005  2007     1 
 2005  2008     1 
 2005  2023     1 
 2006  2010     1 
 2006  2011     1 
 2006  2026     1 
 2006  2027     1 
 2006  2029     1 
 2007  2009     1 
 2007  2024     1 
 2007  2025     1 
 2007  2028     1 
 2008  2012     1 
 2008  2021     1 
 2008  2024     1 
 2008  2026     1 
 2008  2027     1 
 2008  2028     1 
 2009  2013     1 
 2009  2014     1 
 2009  2020     1 
 2009  2022     1 
 2009  2024     1 
 2009  2028     1 
 2010  2012     1 
 2010  2021     1 
 2010  2023     1 
 2010  2026     1 
 2010  2027     1 
 2011  2015     1 
 2011  2016     1 
 2011  2023     1 
 2011  2026     1 
 2011  2027     1 
 2012  2017     1 
 2012  2020     1 
 2012  2022     1 
 2012  2025     1 
 2013  2015     1 
 2013  2016     1 
 2013  2021     1 
 2014  2018     1 
 2014  2019     1 
 2014  2021     1 
 2015  2017     1 
 2015  2020     1 
 2016  2022     1 
 2017  2021     1 
 2018  2020     1 
 2019  2020     1 
 2021  2025     1 
 2023  2030     1 
 2023  2031     1 
 2023  2032     1 
 2024  2026     1 
 2024  2027     1 
 2024  2029     1 
 2025  2029     1 
 2026  2028     1 
 2027  2028     1 
 2028  2033     1 
 2029  2034     1 
 2029  2035     1 
 2029  2036     1 
 2030  2033     1 
 2031  2033     1 
 2032  2037     1 
 2032  2038     1 
 2032  2053     1 
 2033  2039     1 
 2033  2054     1 
 2033  2055     1 
 2033  2058     1 
 2034  2037     1 
 2034  2038     1 
 2034  2053     1 
 2035  2037     1 
 2035  2038     1 
 2035  2053     1 
 2036  2040     1 
 2036  2041     1 
 2036  2056     1 
 2036  2057     1 
 2036  2059     1 
 2037  2039     1 
 2037  2054     1 
 2037  2055     1 
 2037  2058     1 
 2038  2042     1 
 2038  2051     1 
 2038  2054     1 
 2038  2056     1 
 2038  2057     1 
 2038  2058     1 
 2039  2043     1 
 2039  2044     1 
 2039  2050     1 
 2039  2052     1 
 2039  2054     1 
 2039  2058     1 
 2040  2042     1 
 2040  2051     1 
 2040  2053     1 
 2040  2056     1 
 2040  2057     1 
 2041  2045     1 
 2041  2046     1 
 2041  2053     1 
 2041  2056     1 
 2041  2057     1 
 2042  2047     1 
 2042  2050     1 
 2042  2052     1 
 2042  2055     1 
 2043  2045     1 
 2043  2046     1 
 2043  2051     1 
 2044  2048     1 
 2044  2049     1 
 2044  2051     1 
 2045  2047     1 
 2045  2050     1 
 2046  2052     1 
 2047  2051     1 
 2048  2050     1 
 2049  2050     1 
 2051  2055     1 
 2053  2060     1 
 2053  2061     1 
 2053  2062     1 
 2054  2056     1 
 2054  2057     1 
 2054  2059     1 
 2055  2059     1 
 2056  2058     1 
 2057  2058     1 
 2058  2063     1 
 2059  2064     1 
 2059  2065     1 
 2059  2066     1 
 2060  2063     1 
 2061  2063     1 
 2062  2067     1 
 2062  2068     1 
 2062  2085     1 
 2063  2069     1 
 2063  2086     1 
 2063  2087     1 
 2063  2090     1 
 2064  2067     1 
 2064  2068     1 
 2064  2085     1 
 2065  2067     1 
 2065  2068     1 
 2065  2085     1 
 2066  2070     1 
 2066  2071     1 
 2066  2088     1 
 2066  2089     1 
 2066  2091     1 
 2067  2069     1 
 2067  2086     1 
 2067  2087     1 
 2067  2090     1 
 2068  2072     1 
 2068  2084     1 
 2068  2086     1 
 2068  2088     1 
 2068  2089     1 
 2068  2090     1 
 2069  2073     1 
 2069  2074     1 
 2069  2075     1 
 2069  2083     1 
 2069  2086     1 
 2069  2090     1 
 2070  2072     1 
 2070  2084     1 
 2070  2085     1 
 2070  2088     1 
 2070  2089     1 
 2071  2076     1 
 2071  2081     1 
 2071  2085     1 
 2071  2088     1 
 2071  2089     1 
 2072  2076     1 
 2072  2083     1 
 2072  2087     1 
 2073  2075     1 
 2073  2084     1 
 2074  2077     1 
 2074  2080     1 
 2074  2083     1 
 2075  2078     1 
 2075  2079     1 
 2075  2081     1 
 2076  2082     1 
 2076  2083     1 
 2077  2081     1 
 2077  2084     1 
 2078  2080     1 
 2079  2080     1 
 2080  2084     1 
 2082  2084     1 
 2084  2087     1 
 2085  2092     1 
 2085  2093     1 
 2085  2094     1 
 2086  2088     1 
 2086  2089     1 
 2086  2091     1 
 2087  2091     1 
 2088  2090     1 
 2089  2090     1 
 2090  2095     1 
 2091  2096     1 
 2091  2097     1 
 2091  2098     1 
 2092  2095     1 
 2093  2095     1 
 2094  2099     1 
 2094  2100     1 
 2094  2118     1 
 2095  2101     1 
 2095  2119     1 
 2095  2120     1 
 2095  2123     1 
 2096  2099     1 
 2096  2100     1 
 2096  2118     1 
 2097  2099     1 
 2097  2100     1 
 2097  2118     1 
 2098  2102     1 
 2098  2103     1 
 2098  2121     1 
 2098  2122     1 
 2098  2124     1 
 2099  2101     1 
 2099  2119     1 
 2099  2120     1 
 2099  2123     1 
 2100  2104     1 
 2100  2117     1 
 2100  2119     1 
 2100  2121     1 
 2100  2122     1 
 2100  2123     1 
 2101  2105     1 
 2101  2106     1 
 2101  2107     1 
 2101  2116     1 
 2101  2119     1 
 2101  2123     1 
 2102  2104     1 
 2102  2117     1 
 2102  2118     1 
 2102  2121     1 
 2102  2122     1 
 2103  2108     1 
 2103  2112     1 
 2103  2118     1 
 2103  2121     1 
 2103  2122     1 
 2104  2108     1 
 2104  2116     1 
 2104  2120     1 
 2105  2107     1 
 2105  2117     1 
 2106  2109     1 
 2106  2110     1 
 2106  2116     1 
 2107  2111     1 
 2107  2112     1 
 2108  2113     1 
 2108  2116     1 
 2109  2111     1 
 2109  2112     1 
 2109  2117     1 
 2110  2114     1 
 2110  2115     1 
 2110  2117     1 
 2111  2113     1 
 2111  2116     1 
 2113  2117     1 
 2114  2116     1 
 2115  2116     1 
 2117  2120     1 
 2118  2125     1 
 2118  2126     1 
 2118  2127     1 
 2119  2121     1 
 2119  2122     1 
 2119  2124     1 
 2120  2124     1 
 2121  2123     1 
 2122  2123     1 
 2123  2128     1 
 2124  2129     1 
 2124  2130     1 
 2124  2131     1 
 2125  2128     1 
 2126  2128     1 
 2127  2132     1 
 2127  2133     1 
 2127  2150     1 
 2128  2134     1 
 2128  2151     1 
 2128  2152     1 
 2128  2155     1 
 2129  2132     1 
 2129  2133     1 
 2129  2150     1 
 2130  2132     1 
 2130  2133     1 
 2130  2150     1 
 2131  2135     1 
 2131  2136     1 
 2131  2153     1 
 2131  2154     1 
 2131  2156     1 
 2132  2134     1 
 2132  2151     1 
 2132  2152     1 
 2132  2155     1 
 2133  2137     1 
 2133  2149     1 
 2133  2151     1 
 2133  2153     1 
 2133  2154     1 
 2133  2155     1 
 2134  2138     1 
 2134  2139     1 
 2134  2140     1 
 2134  2148     1 
 2134  2151     1 
 2134  2155     1 
 2135  2137     1 
 2135  2149     1 
 2135  2150     1 
 2135  2153     1 
 2135  2154     1 
 2136  2141     1 
 2136  2146     1 
 2136  2150     1 
 2136  2153     1 
 2136  2154     1 
 2137  2141     1 
 2137  2148     1 
 2137  2152     1 
 2138  2140     1 
 2138  2149     1 
 2139  2142     1 
 2139  2145     1 
 2139  2148     1 
 2140  2143     1 
 2140  2144     1 
 2140  2146     1 
 2141  2147     1 
 2141  2148     1 
 2142  2146     1 
 2142  2149     1 
 2143  2145     1 
 2144  2145     1 
 2145  2149     1 
 2147  2149     1 
 2149  2152     1 
 2150  2157     1 
 2150  2158     1 
 2150  2159     1 
 2151  2153     1 
 2151  2154     1 
 2151  2156     1 
 2152  2156     1 
 2153  2155     1 
 2154  2155     1 
 2155  2160     1 
 2156  2161     1 
 2156  2162     1 
 2156  2163     1 
 2157  2160     1 
 2158  2160     1 
 2159  2164     1 
 2159  2165     1 
 2159  2183     1 
 2160  2166     1 
 2160  2184     1 
 2160  2185     1 
 2160  2188     1 
 2161  2164     1 
 2161  2165     1 
 2161  2183     1 
 2162  2164     1 
 2162  2165     1 
 2162  2183     1 
 2163  2167     1 
 2163  2168     1 
 2163  2186     1 
 2163  2187     1 
 2163  2189     1 
 2164  2166     1 
 2164  2184     1 
 2164  2185     1 
 2164  2188     1 
 2165  2169     1 
 2165  2182     1 
 2165  2184     1 
 2165  2186     1 
 2165  2187     1 
 2165  2188     1 
 2166  2170     1 
 2166  2171     1 
 2166  2172     1 
 2166  2181     1 
 2166  2184     1 
 2166  2188     1 
 2167  2169     1 
 2167  2182     1 
 2167  2183     1 
 2167  2186     1 
 2167  2187     1 
 2168  2173     1 
 2168  2177     1 
 2168  2183     1 
 2168  2186     1 
 2168  2187     1 
 2169  2173     1 
 2169  2181     1 
 2169  2185     1 
 2170  2172     1 
 2170  2182     1 
 2171  2174     1 
 2171  2175     1 
 2171  2181     1 
 2172  2176     1 
 2172  2177     1 
 2173  2178     1 
 2173  2181     1 
 2174  2176     1 
 2174  2177     1 
 2174  2182     1 
 2175  2179     1 
 2175  2180     1 
 2175  2182     1 
 2176  2178     1 
 2176  2181     1 
 2178  2182     1 
 2179  2181     1 
 2180  2181     1 
 2182  2185     1 
 2183  2190     1 
 2183  2191     1 
 2183  2192     1 
 2184  2186     1 
 2184  2187     1 
 2184  2189     1 
 2185  2189     1 
 2186  2188     1 
 2187  2188     1 
 2188  2193     1 
 2189  2194     1 
 2189  2195     1 
 2189  2196     1 
 2190  2193     1 
 2191  2193     1 
 2192  2197     1 
 2192  2198     1 
 2192  2216     1 
 2193  2199     1 
 2193  2217     1 
 2193  2218     1 
 2193  2221     1 
 2194  2197     1 
 2194  2198     1 
 2194  2216     1 
 2195  2197     1 
 2195  2198     1 
 2195  2216     1 
 2196  2200     1 
 2196  2201     1 
 2196  2219     1 
 2196  2220     1 
 2196  2222     1 
 2197  2199     1 
 2197  2217     1 
 2197  2218     1 
 2197  2221     1 
 2198  2202     1 
 2198  2215     1 
 2198  2217     1 
 2198  2219     1 
 2198  2220     1 
 2198  2221     1 
 2199  2203     1 
 2199  2204     1 
 2199  2205     1 
 2199  2214     1 
 2199  2217     1 
 2199  2221     1 
 2200  2202     1 
 2200  2215     1 
 2200  2216     1 
 2200  2219     1 
 2200  2220     1 
 2201  2206     1 
 2201  2210     1 
 2201  2216     1 
 2201  2219     1 
 2201  2220     1 
 2202  2206     1 
 2202  2214     1 
 2202  2218     1 
 2203  2205     1 
 2203  2215     1 
 2204  2207     1 
 2204  2208     1 
 2204  2214     1 
 2205  2209     1 
 2205  2210     1 
 2206  2211     1 
 2206  2214     1 
 2207  2209     1 
 2207  2210     1 
 2207  2215     1 
 2208  2212     1 
 2208  2213     1 
 2208  2215     1 
 2209  2211     1 
 2209  2214     1 
 2211  2215     1 
 2212  2214     1 
 2213  2214     1 
 2215  2218     1 
 2216  2223     1 
 2216  2224     1 
 2216  2225     1 
 2217  2219     1 
 2217  2220     1 
 2217  2222     1 
 2218  2222     1 
 2219  2221     1 
 2220  2221     1 
 2221  2226     1 
 2222  2227     1 
 2222  2228     1 
 2222  2229     1 
 2223  2226     1 
 2224  2226     1 
 2225  2230     1 
 2225  2231     1 
 2225  2246     1 
 2226  2232     1 
 2226  2247     1 
 2226  2248     1 
 2226  2251     1 
 2227  2230     1 
 2227  2231     1 
 2227  2246     1 
 2228  2230     1 
 2228  2231     1 
 2228  2246     1 
 2229  2233     1 
 2229  2234     1 
 2229  2249     1 
 2229  2250     1 
 2229  2252     1 
 2230  2232     1 
 2230  2247     1 
 2230  2248     1 
 2230  2251     1 
 2231  2235     1 
 2231  2244     1 
 2231  2247     1 
 2231  2249     1 
 2231  2250     1 
 2231  2251     1 
 2232  2236     1 
 2232  2237     1 
 2232  2243     1 
 2232  2245     1 
 2232  2247     1 
 2232  2251     1 
 2233  2235     1 
 2233  2244     1 
 2233  2246     1 
 2233  2249     1 
 2233  2250     1 
 2234  2238     1 
 2234  2239     1 
 2234  2246     1 
 2234  2249     1 
 2234  2250     1 
 2235  2240     1 
 2235  2243     1 
 2235  2245     1 
 2235  2248     1 
 2236  2238     1 
 2236  2239     1 
 2236  2244     1 
 2237  2241     1 
 2237  2242     1 
 2237  2244     1 
 2238  2240     1 
 2238  2243     1 
 2239  2245     1 
 2240  2244     1 
 2241  2243     1 
 2242  2243     1 
 2244  2248     1 
 2246  2253     1 
 2246  2254     1 
 2246  2255     1 
 2247  2249     1 
 2247  2250     1 
 2247  2252     1 
 2248  2252     1 
 2249  2251     1 
 2250  2251     1 
 2251  2256     1 
 2252  2257     1 
 2252  2258     1 
 2252  2259     1 
 2253  2256     1 
 2254  2256     1 
 2255  2260     1 
 2255  2261     1 
 2255  2278     1 
 2256  2262     1 
 2256  2279     1 
 2256  2280     1 
 2256  2283     1 
 2257  2260     1 
 2257  2261     1 
 2257  2278     1 
 2258  2260     1 
 2258  2261     1 
 2258  2278     1 
 2259  2263     1 
 2259  2264     1 
 2259  2281     1 
 2259  2282     1 
 2259  2284     1 
 2260  2262     1 
 2260  2279     1 
 2260  2280     1 
 2260  2283     1 
 2261  2265     1 
 2261  2276     1 
 2261  2279     1 
 2261  2281     1 
 2261  2282     1 
 2261  2283     1 
 2262  2266     1 
 2262  2267     1 
 2262  2274     1 
 2262  2277     1 
 2262  2279     1 
 2262  2283     1 
 2263  2265     1 
 2263  2276     1 
 2263  2278     1 
 2263  2281     1 
 2263  2282     1 
 2264  2268     1 
 2264  2272     1 
 2264  2275     1 
 2264  2278     1 
 2264  2281     1 
 2264  2282     1 
 2265  2269     1 
 2265  2270     1 
 2265  2271     1 
 2265  2273     1 
 2265  2274     1 
 2265  2277     1 
 2265  2280     1 
 2266  2268     1 
 2266  2272     1 
 2266  2276     1 
 2267  2275     1 
 2267  2276     1 
 2268  2273     1 
 2268  2274     1 
 2269  2272     1 
 2270  2272     1 
 2271  2272     1 
 2272  2277     1 
 2273  2275     1 
 2273  2276     1 
 2275  2277     1 
 2276  2280     1 
 2278  2285     1 
 2278  2286     1 
 2278  2287     1 
 2279  2281     1 
 2279  2282     1 
 2279  2284     1 
 2280  2284     1 
 2281  2283     1 
 2282  2283     1 
 2283  2288     1 
 2284  2289     1 
 2284  2290     1 
 2284  2291     1 
 2285  2288     1 
 2286  2288     1 
 2287  2292     1 
 2287  2293     1 
 2287  2308     1 
 2288  2294     1 
 2288  2309     1 
 2288  2310     1 
 2288  2313     1 
 2289  2292     1 
 2289  2293     1 
 2289  2308     1 
 2290  2292     1 
 2290  2293     1 
 2290  2308     1 
 2291  2295     1 
 2291  2296     1 
 2291  2311     1 
 2291  2312     1 
 2291  2314     1 
 2292  2294     1 
 2292  2309     1 
 2292  2310     1 
 2292  2313     1 
 2293  2297     1 
 2293  2306     1 
 2293  2309     1 
 2293  2311     1 
 2293  2312     1 
 2293  2313     1 
 2294  2298     1 
 2294  2299     1 
 2294  2305     1 
 2294  2307     1 
 2294  2309     1 
 2294  2313     1 
 2295  2297     1 
 2295  2306     1 
 2295  2308     1 
 2295  2311     1 
 2295  2312     1 
 2296  2300     1 
 2296  2301     1 
 2296  2308     1 
 2296  2311     1 
 2296  2312     1 
 2297  2302     1 
 2297  2305     1 
 2297  2307     1 
 2297  2310     1 
 2298  2300     1 
 2298  2301     1 
 2298  2306     1 
 2299  2303     1 
 2299  2304     1 
 2299  2306     1 
 2300  2302     1 
 2300  2305     1 
 2301  2307     1 
 2302  2306     1 
 2303  2305     1 
 2304  2305     1 
 2306  2310     1 
 2308  2315     1 
 2308  2316     1 
 2308  2317     1 
 2309  2311     1 
 2309  2312     1 
 2309  2314     1 
 2310  2314     1 
 2311  2313     1 
 2312  2313     1 
 2313  2318     1 
 2314  2319     1 
 2314  2320     1 
 2314  2321     1 
 2315  2318     1 
 2316  2318     1 
 2317  2322     1 
 2317  2323     1 
 2317  2340     1 
 2318  2324     1 
 2318  2341     1 
 2318  2342     1 
 2318  2345     1 
 2319  2322     1 
 2319  2323     1 
 2319  2340     1 
 2320  2322     1 
 2320  2323     1 
 2320  2340     1 
 2321  2325     1 
 2321  2326     1 
 2321  2343     1 
 2321  2344     1 
 2321  2346     1 
 2322  2324     1 
 2322  2341     1 
 2322  2342     1 
 2322  2345     1 
 2323  2327     1 
 2323  2339     1 
 2323  2341     1 
 2323  2343     1 
 2323  2344     1 
 2323  2345     1 
 2324  2328     1 
 2324  2329     1 
 2324  2330     1 
 2324  2338     1 
 2324  2341     1 
 2324  2345     1 
 2325  2327     1 
 2325  2339     1 
 2325  2340     1 
 2325  2343     1 
 2325  2344     1 
 2326  2331     1 
 2326  2336     1 
 2326  2340     1 
 2326  2343     1 
 2326  2344     1 
 2327  2331     1 
 2327  2338     1 
 2327  2342     1 
 2328  2330     1 
 2328  2339     1 
 2329  2332     1 
 2329  2335     1 
 2329  2338     1 
 2330  2333     1 
 2330  2334     1 
 2330  2336     1 
 2331  2337     1 
 2331  2338     1 
 2332  2336     1 
 2332  2339     1 
 2333  2335     1 
 2334  2335     1 
 2335  2339     1 
 2337  2339     1 
 2339  2342     1 
 2340  2347     1 
 2340  2348     1 
 2340  2349     1 
 2341  2343     1 
 2341  2344     1 
 2341  2346     1 
 2342  2346     1 
 2343  2345     1 
 2344  2345     1 
 2345  2350     1 
 2346  2351     1 
 2346  2352     1 
 2346  2353     1 
 2347  2350     1 
 2348  2350     1 
 2349  2354     1 
 2349  2355     1 
 2349  2373     1 
 2350  2356     1 
 2350  2374     1 
 2350  2375     1 
 2350  2378     1 
 2351  2354     1 
 2351  2355     1 
 2351  2373     1 
 2352  2354     1 
 2352  2355     1 
 2352  2373     1 
 2353  2357     1 
 2353  2358     1 
 2353  2376     1 
 2353  2377     1 
 2353  2379     1 
 2354  2356     1 
 2354  2374     1 
 2354  2375     1 
 2354  2378     1 
 2355  2359     1 
 2355  2372     1 
 2355  2374     1 
 2355  2376     1 
 2355  2377     1 
 2355  2378     1 
 2356  2360     1 
 2356  2361     1 
 2356  2362     1 
 2356  2371     1 
 2356  2374     1 
 2356  2378     1 
 2357  2359     1 
 2357  2372     1 
 2357  2373     1 
 2357  2376     1 
 2357  2377     1 
 2358  2363     1 
 2358  2367     1 
 2358  2373     1 
 2358  2376     1 
 2358  2377     1 
 2359  2363     1 
 2359  2371     1 
 2359  2375     1 
 2360  2362     1 
 2360  2372     1 
 2361  2364     1 
 2361  2365     1 
 2361  2371     1 
 2362  2366     1 
 2362  2367     1 
 2363  2368     1 
 2363  2371     1 
 2364  2366     1 
 2364  2367     1 
 2364  2372     1 
 2365  2369     1 
 2365  2370     1 
 2365  2372     1 
 2366  2368     1 
 2366  2371     1 
 2368  2372     1 
 2369  2371     1 
 2370  2371     1 
 2372  2375     1 
 2373  2380     1 
 2373  2381     1 
 2373  2382     1 
 2374  2376     1 
 2374  2377     1 
 2374  2379     1 
 2375  2379     1 
 2376  2378     1 
 2377  2378     1 
 2378  2383     1 
 2379  2384     1 
 2379  2385     1 
 2379  2386     1 
 2380  2383     1 
 2381  2383     1 
 2382  2387     1 
 2382  2388     1 
 2382  2403     1 
 2383  2389     1 
 2383  2404     1 
 2383  2405     1 
 2383  2408     1 
 2384  2387     1 
 2384  2388     1 
 2384  2403     1 
 2385  2387     1 
 2385  2388     1 
 2385  2403     1 
 2386  2390     1 
 2386  2391     1 
 2386  2406     1 
 2386  2407     1 
 2386  2409     1 
 2387  2389     1 
 2387  2404     1 
 2387  2405     1 
 2387  2408     1 
 2388  2392     1 
 2388  2401     1 
 2388  2404     1 
 2388  2406     1 
 2388  2407     1 
 2388  2408     1 
 2389  2393     1 
 2389  2394     1 
 2389  2400     1 
 2389  2402     1 
 2389  2404     1 
 2389  2408     1 
 2390  2392     1 
 2390  2401     1 
 2390  2403     1 
 2390  2406     1 
 2390  2407     1 
 2391  2395     1 
 2391  2396     1 
 2391  2403     1 
 2391  2406     1 
 2391  2407     1 
 2392  2397     1 
 2392  2400     1 
 2392  2402     1 
 2392  2405     1 
 2393  2395     1 
 2393  2396     1 
 2393  2401     1 
 2394  2398     1 
 2394  2399     1 
 2394  2401     1 
 2395  2397     1 
 2395  2400     1 
 2396  2402     1 
 2397  2401     1 
 2398  2400     1 
 2399  2400     1 
 2401  2405     1 
 2403  2410     1 
 2403  2411     1 
 2403  2412     1 
 2404  2406     1 
 2404  2407     1 
 2404  2409     1 
 2405  2409     1 
 2406  2408     1 
 2407  2408     1 
 2408  2413     1 
 2409  2414     1 
 2409  2415     1 
 2409  2416     1 
 2410  2413     1 
 2411  2413     1 
 2412  2417     1 
 2412  2418     1 
 2412  2436     1 
 2413  2419     1 
 2413  2437     1 
 2413  2438     1 
 2413  2441     1 
 2414  2417     1 
 2414  2418     1 
 2414  2436     1 
 2415  2417     1 
 2415  2418     1 
 2415  2436     1 
 2416  2420     1 
 2416  2421     1 
 2416  2439     1 
 2416  2440     1 
 2416  2442     1 
 2417  2419     1 
 2417  2437     1 
 2417  2438     1 
 2417  2441     1 
 2418  2422     1 
 2418  2435     1 
 2418  2437     1 
 2418  2439     1 
 2418  2440     1 
 2418  2441     1 
 2419  2423     1 
 2419  2424     1 
 2419  2425     1 
 2419  2434     1 
 2419  2437     1 
 2419  2441     1 
 2420  2422     1 
 2420  2435     1 
 2420  2436     1 
 2420  2439     1 
 2420  2440     1 
 2421  2426     1 
 2421  2430     1 
 2421  2436     1 
 2421  2439     1 
 2421  2440     1 
 2422  2426     1 
 2422  2434     1 
 2422  2438     1 
 2423  2425     1 
 2423  2435     1 
 2424  2427     1 
 2424  2428     1 
 2424  2434     1 
 2425  2429     1 
 2425  2430     1 
 2426  2431     1 
 2426  2434     1 
 2427  2429     1 
 2427  2430     1 
 2427  2435     1 
 2428  2432     1 
 2428  2433     1 
 2428  2435     1 
 2429  2431     1 
 2429  2434     1 
 2431  2435     1 
 2432  2434     1 
 2433  2434     1 
 2435  2438     1 
 2436  2443     1 
 2436  2444     1 
 2436  2445     1 
 2437  2439     1 
 2437  2440     1 
 2437  2442     1 
 2438  2442     1 
 2439  2441     1 
 2440  2441     1 
 2441  2446     1 
 2442  2447     1 
 2442  2448     1 
 2442  2449     1 
 2443  2446     1 
 2444  2446     1 
 2445  2450     1 
 2445  2451     1 
 2445  2469     1 
 2446  2452     1 
 2446  2470     1 
 2446  2471     1 
 2446  2474     1 
 2447  2450     1 
 2447  2451     1 
 2447  2469     1 
 2448  2450     1 
 2448  2451     1 
 2448  2469     1 
 2449  2453     1 
 2449  2454     1 
 2449  2472     1 
 2449  2473     1 
 2449  2475     1 
 2450  2452     1 
 2450  2470     1 
 2450  2471     1 
 2450  2474     1 
 2451  2455     1 
 2451  2468     1 
 2451  2470     1 
 2451  2472     1 
 2451  2473     1 
 2451  2474     1 
 2452  2456     1 
 2452  2457     1 
 2452  2458     1 
 2452  2467     1 
 2452  2470     1 
 2452  2474     1 
 2453  2455     1 
 2453  2468     1 
 2453  2469     1 
 2453  2472     1 
 2453  2473     1 
 2454  2459     1 
 2454  2463     1 
 2454  2469     1 
 2454  2472     1 
 2454  2473     1 
 2455  2459     1 
 2455  2467     1 
 2455  2471     1 
 2456  2458     1 
 2456  2468     1 
 2457  2460     1 
 2457  2461     1 
 2457  2467     1 
 2458  2462     1 
 2458  2463     1 
 2459  2464     1 
 2459  2467     1 
 2460  2462     1 
 2460  2463     1 
 2460  2468     1 
 2461  2465     1 
 2461  2466     1 
 2461  2468     1 
 2462  2464     1 
 2462  2467     1 
 2464  2468     1 
 2465  2467     1 
 2466  2467     1 
 2468  2471     1 
 2469  2476     1 
 2469  2477     1 
 2469  2478     1 
 2470  2472     1 
 2470  2473     1 
 2470  2475     1 
 2471  2475     1 
 2472  2474     1 
 2473  2474     1 
 2474  2479     1 
 2475  2480     1 
 2475  2481     1 
 2475  2482     1 
 2476  2479     1 
 2477  2479     1 
 2478  2483     1 
 2478  2484     1 
 2478  2499     1 
 2479  2485     1 
 2479  2500     1 
 2479  2501     1 
 2479  2504     1 
 2480  2483     1 
 2480  2484     1 
 2480  2499     1 
 2481  2483     1 
 2481  2484     1 
 2481  2499     1 
 2482  2486     1 
 2482  2487     1 
 2482  2502     1 
 2482  2503     1 
 2482  2505     1 
 2483  2485     1 
 2483  2500     1 
 2483  2501     1 
 2483  2504     1 
 2484  2488     1 
 2484  2497     1 
 2484  2500     1 
 2484  2502     1 
 2484  2503     1 
 2484  2504     1 
 2485  2489     1 
 2485  2490     1 
 2485  2496     1 
 2485  2498     1 
 2485  2500     1 
 2485  2504     1 
 2486  2488     1 
 2486  2497     1 
 2486  2499     1 
 2486  2502     1 
 2486  2503     1 
 2487  2491     1 
 2487  2492     1 
 2487  2499     1 
 2487  2502     1 
 2487  2503     1 
 2488  2493     1 
 2488  2496     1 
 2488  2498     1 
 2488  2501     1 
 2489  2491     1 
 2489  2492     1 
 2489  2497     1 
 2490  2494     1 
 2490  2495     1 
 2490  2497     1 
 2491  2493     1 
 2491  2496     1 
 2492  2498     1 
 2493  2497     1 
 2494  2496     1 
 2495  2496     1 
 2497  2501     1 
 2499  2506     1 
 2499  2507     1 
 2499  2508     1 
 2500  2502     1 
 2500  2503     1 
 2500  2505     1 
 2501  2505     1 
 2502  2504     1 
 2503  2504     1 
 2504  2509     1 
 2505  2510     1 
 2505  2511     1 
 2505  2512     1 
 2506  2509     1 
 2507  2509     1 
 2508  2513     1 
 2508  2514     1 
 2508  2531     1 
 2509  2515     1 
 2509  2532     1 
 2509  2533     1 
 2509  2536     1 
 2510  2513     1 
 2510  2514     1 
 2510  2531     1 
 2511  2513     1 
 2511  2514     1 
 2511  2531     1 
 2512  2516     1 
 2512  2517     1 
 2512  2534     1 
 2512  2535     1 
 2512  2537     1 
 2513  2515     1 
 2513  2532     1 
 2513  2533     1 
 2513  2536     1 
 2514  2518     1 
 2514  2529     1 
 2514  2532     1 
 2514  2534     1 
 2514  2535     1 
 2514  2536     1 
 2515  2519     1 
 2515  2520     1 
 2515  2527     1 
 2515  2530     1 
 2515  2532     1 
 2515  2536     1 
 2516  2518     1 
 2516  2529     1 
 2516  2531     1 
 2516  2534     1 
 2516  2535     1 
 2517  2521     1 
 2517  2525     1 
 2517  2528     1 
 2517  2531     1 
 2517  2534     1 
 2517  2535     1 
 2518  2522     1 
 2518  2523     1 
 2518  2524     1 
 2518  2526     1 
 2518  2527     1 
 2518  2530     1 
 2518  2533     1 
 2519  2521     1 
 2519  2525     1 
 2519  2529     1 
 2520  2528     1 
 2520  2529     1 
 2521  2526     1 
 2521  2527     1 
 2522  2525     1 
 2523  2525     1 
 2524  2525     1 
 2525  2530     1 
 2526  2528     1 
 2526  2529     1 
 2528  2530     1 
 2529  2533     1 
 2531  2538     1 
 2531  2539     1 
 2531  2540     1 
 2532  2534     1 
 2532  2535     1 
 2532  2537     1 
 2533  2537     1 
 2534  2536     1 
 2535  2536     1 
 2536  2541     1 
 2537  2542     1 
 2537  2543     1 
 2537  2544     1 
 2538  2541     1 
 2539  2541     1 
 2540  2545     1 
 2540  2546     1 
 2540  2561     1 
 2541  2547     1 
 2541  2562     1 
 2541  2563     1 
 2541  2566     1 
 2542  2545     1 
 2542  2546     1 
 2542  2561     1 
 2543  2545     1 
 2543  2546     1 
 2543  2561     1 
 2544  2548     1 
 2544  2549     1 
 2544  2564     1 
 2544  2565     1 
 2544  2567     1 
 2545  2547     1 
 2545  2562     1 
 2545  2563     1 
 2545  2566     1 
 2546  2550     1 
 2546  2559     1 
 2546  2562     1 
 2546  2564     1 
 2546  2565     1 
 2546  2566     1 
 2547  2551     1 
 2547  2552     1 
 2547  2558     1 
 2547  2560     1 
 2547  2562     1 
 2547  2566     1 
 2548  2550     1 
 2548  2559     1 
 2548  2561     1 
 2548  2564     1 
 2548  2565     1 
 2549  2553     1 
 2549  2554     1 
 2549  2561     1 
 2549  2564     1 
 2549  2565     1 
 2550  2555     1 
 2550  2558     1 
 2550  2560     1 
 2550  2563     1 
 2551  2553     1 
 2551  2554     1 
 2551  2559     1 
 2552  2556     1 
 2552  2557     1 
 2552  2559     1 
 2553  2555     1 
 2553  2558     1 
 2554  2560     1 
 2555  2559     1 
 2556  2558     1 
 2557  2558     1 
 2559  2563     1 
 2561  2568     1 
 2561  2569     1 
 2561  2570     1 
 2562  2564     1 
 2562  2565     1 
 2562  2567     1 
 2563  2567     1 
 2564  2566     1 
 2565  2566     1 
 2566  2571     1 
 2567  2572     1 
 2567  2573     1 
 2567  2574     1 
 2568  2571     1 
 2569  2571     1 
 2570  2575     1 
 2570  2576     1 
 2570  2591     1 
 2571  2577     1 
 2571  2592     1 
 2571  2593     1 
 2571  2596     1 
 2572  2575     1 
 2572  2576     1 
 2572  2591     1 
 2573  2575     1 
 2573  2576     1 
 2573  2591     1 
 2574  2578     1 
 2574  2579     1 
 2574  2594     1 
 2574  2595     1 
 2574  2597     1 
 2575  2577     1 
 2575  2592     1 
 2575  2593     1 
 2575  2596     1 
 2576  2580     1 
 2576  2589     1 
 2576  2592     1 
 2576  2594     1 
 2576  2595     1 
 2576  2596     1 
 2577  2581     1 
 2577  2582     1 
 2577  2588     1 
 2577  2590     1 
 2577  2592     1 
 2577  2596     1 
 2578  2580     1 
 2578  2589     1 
 2578  2591     1 
 2578  2594     1 
 2578  2595     1 
 2579  2583     1 
 2579  2584     1 
 2579  2591     1 
 2579  2594     1 
 2579  2595     1 
 2580  2585     1 
 2580  2588     1 
 2580  2590     1 
 2580  2593     1 
 2581  2583     1 
 2581  2584     1 
 2581  2589     1 
 2582  2586     1 
 2582  2587     1 
 2582  2589     1 
 2583  2585     1 
 2583  2588     1 
 2584  2590     1 
 2585  2589     1 
 2586  2588     1 
 2587  2588     1 
 2589  2593     1 
 2591  2598     1 
 2591  2599     1 
 2591  2600     1 
 2592  2594     1 
 2592  2595     1 
 2592  2597     1 
 2593  2597     1 
 2594  2596     1 
 2595  2596     1 
 2596  2601     1 
 2597  2602     1 
 2597  2603     1 
 2597  2604     1 
 2598  2601     1 
 2599  2601     1 
 2600  2605     1 
 2600  2606     1 
 2600  2621     1 
 2601  2607     1 
 2601  2622     1 
 2601  2623     1 
 2601  2626     1 
 2602  2605     1 
 2602  2606     1 
 2602  2621     1 
 2603  2605     1 
 2603  2606     1 
 2603  2621     1 
 2604  2608     1 
 2604  2609     1 
 2604  2624     1 
 2604  2625     1 
 2604  2627     1 
 2605  2607     1 
 2605  2622     1 
 2605  2623     1 
 2605  2626     1 
 2606  2610     1 
 2606  2619     1 
 2606  2622     1 
 2606  2624     1 
 2606  2625     1 
 2606  2626     1 
 2607  2611     1 
 2607  2612     1 
 2607  2618     1 
 2607  2620     1 
 2607  2622     1 
 2607  2626     1 
 2608  2610     1 
 2608  2619     1 
 2608  2621     1 
 2608  2624     1 
 2608  2625     1 
 2609  2613     1 
 2609  2614     1 
 2609  2621     1 
 2609  2624     1 
 2609  2625     1 
 2610  2615     1 
 2610  2618     1 
 2610  2620     1 
 2610  2623     1 
 2611  2613     1 
 2611  2614     1 
 2611  2619     1 
 2612  2616     1 
 2612  2617     1 
 2612  2619     1 
 2613  2615     1 
 2613  2618     1 
 2614  2620     1 
 2615  2619     1 
 2616  2618     1 
 2617  2618     1 
 2619  2623     1 
 2621  2628     1 
 2621  2629     1 
 2621  2630     1 
 2622  2624     1 
 2622  2625     1 
 2622  2627     1 
 2623  2627     1 
 2624  2626     1 
 2625  2626     1 
 2626  2631     1 
 2627  2632     1 
 2627  2633     1 
 2627  2634     1 
 2628  2631     1 
 2629  2631     1 
 2630  2635     1 
 2630  2636     1 
 2630  2653     1 
 2631  2637     1 
 2631  2654     1 
 2631  2655     1 
 2631  2658     1 
 2632  2635     1 
 2632  2636     1 
 2632  2653     1 
 2633  2635     1 
 2633  2636     1 
 2633  2653     1 
 2634  2638     1 
 2634  2639     1 
 2634  2656     1 
 2634  2657     1 
 2634  2659     1 
 2635  2637     1 
 2635  2654     1 
 2635  2655     1 
 2635  2658     1 
 2636  2640     1 
 2636  2652     1 
 2636  2654     1 
 2636  2656     1 
 2636  2657     1 
 2636  2658     1 
 2637  2641     1 
 2637  2642     1 
 2637  2643     1 
 2637  2651     1 
 2637  2654     1 
 2637  2658     1 
 2638  2640     1 
 2638  2652     1 
 2638  2653     1 
 2638  2656     1 
 2638  2657     1 
 2639  2644     1 
 2639  2649     1 
 2639  2653     1 
 2639  2656     1 
 2639  2657     1 
 2640  2644     1 
 2640  2651     1 
 2640  2655     1 
 2641  2643     1 
 2641  2652     1 
 2642  2645     1 
 2642  2648     1 
 2642  2651     1 
 2643  2646     1 
 2643  2647     1 
 2643  2649     1 
 2644  2650     1 
 2644  2651     1 
 2645  2649     1 
 2645  2652     1 
 2646  2648     1 
 2647  2648     1 
 2648  2652     1 
 2650  2652     1 
 2652  2655     1 
 2653  2660     1 
 2653  2661     1 
 2653  2662     1 
 2654  2656     1 
 2654  2657     1 
 2654  2659     1 
 2655  2659     1 
 2656  2658     1 
 2657  2658     1 
 2658  2663     1 
 2659  2664     1 
 2659  2665     1 
 2659  2666     1 
 2660  2663     1 
 2661  2663     1 
 2662  2667     1 
 2662  2668     1 
 2662  2686     1 
 2663  2669     1 
 2663  2687     1 
 2663  2688     1 
 2663  2691     1 
 2664  2667     1 
 2664  2668     1 
 2664  2686     1 
 2665  2667     1 
 2665  2668     1 
 2665  2686     1 
 2666  2670     1 
 2666  2671     1 
 2666  2689     1 
 2666  2690     1 
 2666  2692     1 
 2667  2669     1 
 2667  2687     1 
 2667  2688     1 
 2667  2691     1 
 2668  2672     1 
 2668  2685     1 
 2668  2687     1 
 2668  2689     1 
 2668  2690     1 
 2668  2691     1 
 2669  2673     1 
 2669  2674     1 
 2669  2675     1 
 2669  2684     1 
 2669  2687     1 
 2669  2691     1 
 2670  2672     1 
 2670  2685     1 
 2670  2686     1 
 2670  2689     1 
 2670  2690     1 
 2671  2676     1 
 2671  2680     1 
 2671  2686     1 
 2671  2689     1 
 2671  2690     1 
 2672  2676     1 
 2672  2684     1 
 2672  2688     1 
 2673  2675     1 
 2673  2685     1 
 2674  2677     1 
 2674  2678     1 
 2674  2684     1 
 2675  2679     1 
 2675  2680     1 
 2676  2681     1 
 2676  2684     1 
 2677  2679     1 
 2677  2680     1 
 2677  2685     1 
 2678  2682     1 
 2678  2683     1 
 2678  2685     1 
 2679  2681     1 
 2679  2684     1 
 2681  2685     1 
 2682  2684     1 
 2683  2684     1 
 2685  2688     1 
 2686  2693     1 
 2686  2694     1 
 2686  2695     1 
 2687  2689     1 
 2687  2690     1 
 2687  2692     1 
 2688  2692     1 
 2689  2691     1 
 2690  2691     1 
 2691  2696     1 
 2692  2697     1 
 2692  2698     1 
 2692  2699     1 
 2693  2696     1 
 2694  2696     1 
 2695  2700     1 
 2695  2701     1 
 2695  2719     1 
 2696  2702     1 
 2696  2720     1 
 2696  2721     1 
 2696  2724     1 
 2697  2700     1 
 2697  2701     1 
 2697  2719     1 
 2698  2700     1 
 2698  2701     1 
 2698  2719     1 
 2699  2703     1 
 2699  2704     1 
 2699  2722     1 
 2699  2723     1 
 2699  2725     1 
 2700  2702     1 
 2700  2720     1 
 2700  2721     1 
 2700  2724     1 
 2701  2705     1 
 2701  2718     1 
 2701  2720     1 
 2701  2722     1 
 2701  2723     1 
 2701  2724     1 
 2702  2706     1 
 2702  2707     1 
 2702  2708     1 
 2702  2717     1 
 2702  2720     1 
 2702  2724     1 
 2703  2705     1 
 2703  2718     1 
 2703  2719     1 
 2703  2722     1 
 2703  2723     1 
 2704  2709     1 
 2704  2713     1 
 2704  2719     1 
 2704  2722     1 
 2704  2723     1 
 2705  2709     1 
 2705  2717     1 
 2705  2721     1 
 2706  2708     1 
 2706  2718     1 
 2707  2710     1 
 2707  2711     1 
 2707  2717     1 
 2708  2712     1 
 2708  2713     1 
 2709  2714     1 
 2709  2717     1 
 2710  2712     1 
 2710  2713     1 
 2710  2718     1 
 2711  2715     1 
 2711  2716     1 
 2711  2718     1 
 2712  2714     1 
 2712  2717     1 
 2714  2718     1 
 2715  2717     1 
 2716  2717     1 
 2718  2721     1 
 2719  2726     1 
 2719  2727     1 
 2719  2728     1 
 2720  2722     1 
 2720  2723     1 
 2720  2725     1 
 2721  2725     1 
 2722  2724     1 
 2723  2724     1 
 2724  2729     1 
 2725  2730     1 
 2725  2731     1 
 2725  2732     1 
 2726  2729     1 
 2727  2729     1 
 2728  2733     1 
 2728  2734     1 
 2728  2751     1 
 2729  2735     1 
 2729  2752     1 
 2729  2753     1 
 2729  2756     1 
 2730  2733     1 
 2730  2734     1 
 2730  2751     1 
 2731  2733     1 
 2731  2734     1 
 2731  2751     1 
 2732  2736     1 
 2732  2737     1 
 2732  2754     1 
 2732  2755     1 
 2732  2757     1 
 2733  2735     1 
 2733  2752     1 
 2733  2753     1 
 2733  2756     1 
 2734  2738     1 
 2734  2749     1 
 2734  2752     1 
 2734  2754     1 
 2734  2755     1 
 2734  2756     1 
 2735  2739     1 
 2735  2740     1 
 2735  2747     1 
 2735  2750     1 
 2735  2752     1 
 2735  2756     1 
 2736  2738     1 
 2736  2749     1 
 2736  2751     1 
 2736  2754     1 
 2736  2755     1 
 2737  2741     1 
 2737  2745     1 
 2737  2748     1 
 2737  2751     1 
 2737  2754     1 
 2737  2755     1 
 2738  2742     1 
 2738  2743     1 
 2738  2744     1 
 2738  2746     1 
 2738  2747     1 
 2738  2750     1 
 2738  2753     1 
 2739  2741     1 
 2739  2745     1 
 2739  2749     1 
 2740  2748     1 
 2740  2749     1 
 2741  2746     1 
 2741  2747     1 
 2742  2745     1 
 2743  2745     1 
 2744  2745     1 
 2745  2750     1 
 2746  2748     1 
 2746  2749     1 
 2748  2750     1 
 2749  2753     1 
 2751  2758     1 
 2751  2759     1 
 2751  2760     1 
 2752  2754     1 
 2752  2755     1 
 2752  2757     1 
 2753  2757     1 
 2754  2756     1 
 2755  2756     1 
 2756  2761     1 
 2757  2762     1 
 2757  2763     1 
 2757  2764     1 
 2758  2761     1 
 2759  2761     1 
 2760  2765     1 
 2760  2766     1 
 2760  2784     1 
 2761  2767     1 
 2761  2785     1 
 2761  2786     1 
 2761  2789     1 
 2762  2765     1 
 2762  2766     1 
 2762  2784     1 
 2763  2765     1 
 2763  2766     1 
 2763  2784     1 
 2764  2768     1 
 2764  2769     1 
 2764  2787     1 
 2764  2788     1 
 2764  2790     1 
 2765  2767     1 
 2765  2785     1 
 2765  2786     1 
 2765  2789     1 
 2766  2770     1 
 2766  2783     1 
 2766  2785     1 
 2766  2787     1 
 2766  2788     1 
 2766  2789     1 
 2767  2771     1 
 2767  2772     1 
 2767  2773     1 
 2767  2782     1 
 2767  2785     1 
 2767  2789     1 
 2768  2770     1 
 2768  2783     1 
 2768  2784     1 
 2768  2787     1 
 2768  2788     1 
 2769  2774     1 
 2769  2778     1 
 2769  2784     1 
 2769  2787     1 
 2769  2788     1 
 2770  2774     1 
 2770  2782     1 
 2770  2786     1 
 2771  2773     1 
 2771  2783     1 
 2772  2775     1 
 2772  2776     1 
 2772  2782     1 
 2773  2777     1 
 2773  2778     1 
 2774  2779     1 
 2774  2782     1 
 2775  2777     1 
 2775  2778     1 
 2775  2783     1 
 2776  2780     1 
 2776  2781     1 
 2776  2783     1 
 2777  2779     1 
 2777  2782     1 
 2779  2783     1 
 2780  2782     1 
 2781  2782     1 
 2783  2786     1 
 2784  2791     1 
 2784  2792     1 
 2784  2793     1 
 2785  2787     1 
 2785  2788     1 
 2785  2790     1 
 2786  2790     1 
 2787  2789     1 
 2788  2789     1 
 2789  2794     1 
 2790  2795     1 
 2790  2796     1 
 2790  2797     1 
 2791  2794     1 
 2792  2794     1 
 2793  2798     1 
 2793  2799     1 
 2793  2814     1 
 2794  2800     1 
 2794  2815     1 
 2794  2816     1 
 2794  2819     1 
 2795  2798     1 
 2795  2799     1 
 2795  2814     1 
 2796  2798     1 
 2796  2799     1 
 2796  2814     1 
 2797  2801     1 
 2797  2802     1 
 2797  2817     1 
 2797  2818     1 
 2797  2820     1 
 2798  2800     1 
 2798  2815     1 
 2798  2816     1 
 2798  2819     1 
 2799  2803     1 
 2799  2812     1 
 2799  2815     1 
 2799  2817     1 
 2799  2818     1 
 2799  2819     1 
 2800  2804     1 
 2800  2805     1 
 2800  2811     1 
 2800  2813     1 
 2800  2815     1 
 2800  2819     1 
 2801  2803     1 
 2801  2812     1 
 2801  2814     1 
 2801  2817     1 
 2801  2818     1 
 2802  2806     1 
 2802  2807     1 
 2802  2814     1 
 2802  2817     1 
 2802  2818     1 
 2803  2808     1 
 2803  2811     1 
 2803  2813     1 
 2803  2816     1 
 2804  2806     1 
 2804  2807     1 
 2804  2812     1 
 2805  2809     1 
 2805  2810     1 
 2805  2812     1 
 2806  2808     1 
 2806  2811     1 
 2807  2813     1 
 2808  2812     1 
 2809  2811     1 
 2810  2811     1 
 2812  2816     1 
 2814  2821     1 
 2814  2822     1 
 2814  2823     1 
 2815  2817     1 
 2815  2818     1 
 2815  2820     1 
 2816  2820     1 
 2817  2819     1 
 2818  2819     1 
 2819  2824     1 
 2820  2825     1 
 2820  2826     1 
 2820  2827     1 
 2821  2824     1 
 2822  2824     1 
 2823  2828     1 
 2823  2829     1 
 2823  2847     1 
 2824  2830     1 
 2824  2848     1 
 2824  2849     1 
 2824  2852     1 
 2825  2828     1 
 2825  2829     1 
 2825  2847     1 
 2826  2828     1 
 2826  2829     1 
 2826  2847     1 
 2827  2831     1 
 2827  2832     1 
 2827  2850     1 
 2827  2851     1 
 2827  2853     1 
 2828  2830     1 
 2828  2848     1 
 2828  2849     1 
 2828  2852     1 
 2829  2833     1 
 2829  2846     1 
 2829  2848     1 
 2829  2850     1 
 2829  2851     1 
 2829  2852     1 
 2830  2834     1 
 2830  2835     1 
 2830  2836     1 
 2830  2845     1 
 2830  2848     1 
 2830  2852     1 
 2831  2833     1 
 2831  2846     1 
 2831  2847     1 
 2831  2850     1 
 2831  2851     1 
 2832  2837     1 
 2832  2841     1 
 2832  2847     1 
 2832  2850     1 
 2832  2851     1 
 2833  2837     1 
 2833  2845     1 
 2833  2849     1 
 2834  2836     1 
 2834  2846     1 
 2835  2838     1 
 2835  2839     1 
 2835  2845     1 
 2836  2840     1 
 2836  2841     1 
 2837  2842     1 
 2837  2845     1 
 2838  2840     1 
 2838  2841     1 
 2838  2846     1 
 2839  2843     1 
 2839  2844     1 
 2839  2846     1 
 2840  2842     1 
 2840  2845     1 
 2842  2846     1 
 2843  2845     1 
 2844  2845     1 
 2846  2849     1 
 2847  2854     1 
 2847  2855     1 
 2847  2856     1 
 2848  2850     1 
 2848  2851     1 
 2848  2853     1 
 2849  2853     1 
 2850  2852     1 
 2851  2852     1 
 2852  2857     1 
 2853  2858     1 
 2853  2859     1 
 2853  2860     1 
 2854  2857     1 
 2855  2857     1 
 2856  2861     1 
 2856  2862     1 
 2856  2880     1 
 2857  2863     1 
 2857  2881     1 
 2857  2882     1 
 2857  2885     1 
 2858  2861     1 
 2858  2862     1 
 2858  2880     1 
 2859  2861     1 
 2859  2862     1 
 2859  2880     1 
 2860  2864     1 
 2860  2865     1 
 2860  2883     1 
 2860  2884     1 
 2860  2886     1 
 2861  2863     1 
 2861  2881     1 
 2861  2882     1 
 2861  2885     1 
 2862  2866     1 
 2862  2879     1 
 2862  2881     1 
 2862  2883     1 
 2862  2884     1 
 2862  2885     1 
 2863  2867     1 
 2863  2868     1 
 2863  2869     1 
 2863  2878     1 
 2863  2881     1 
 2863  2885     1 
 2864  2866     1 
 2864  2879     1 
 2864  2880     1 
 2864  2883     1 
 2864  2884     1 
 2865  2870     1 
 2865  2874     1 
 2865  2880     1 
 2865  2883     1 
 2865  2884     1 
 2866  2870     1 
 2866  2878     1 
 2866  2882     1 
 2867  2869     1 
 2867  2879     1 
 2868  2871     1 
 2868  2872     1 
 2868  2878     1 
 2869  2873     1 
 2869  2874     1 
 2870  2875     1 
 2870  2878     1 
 2871  2873     1 
 2871  2874     1 
 2871  2879     1 
 2872  2876     1 
 2872  2877     1 
 2872  2879     1 
 2873  2875     1 
 2873  2878     1 
 2875  2879     1 
 2876  2878     1 
 2877  2878     1 
 2879  2882     1 
 2880  2887     1 
 2880  2888     1 
 2880  2889     1 
 2881  2883     1 
 2881  2884     1 
 2881  2886     1 
 2882  2886     1 
 2883  2885     1 
 2884  2885     1 
 2885  2890     1 
 2886  2891     1 
 2886  2892     1 
 2886  2893     1 
 2887  2890     1 
 2888  2890     1 
 2889  2894     1 
 2889  2895     1 
 2889  2913     1 
 2890  2896     1 
 2890  2914     1 
 2890  2915     1 
 2890  2918     1 
 2891  2894     1 
 2891  2895     1 
 2891  2913     1 
 2892  2894     1 
 2892  2895     1 
 2892  2913     1 
 2893  2897     1 
 2893  2898     1 
 2893  2916     1 
 2893  2917     1 
 2893  2919     1 
 2894  2896     1 
 2894  2914     1 
 2894  2915     1 
 2894  2918     1 
 2895  2899     1 
 2895  2912     1 
 2895  2914     1 
 2895  2916     1 
 2895  2917     1 
 2895  2918     1 
 2896  2900     1 
 2896  2901     1 
 2896  2902     1 
 2896  2911     1 
 2896  2914     1 
 2896  2918     1 
 2897  2899     1 
 2897  2912     1 
 2897  2913     1 
 2897  2916     1 
 2897  2917     1 
 2898  2903     1 
 2898  2907     1 
 2898  2913     1 
 2898  2916     1 
 2898  2917     1 
 2899  2903     1 
 2899  2911     1 
 2899  2915     1 
 2900  2902     1 
 2900  2912     1 
 2901  2904     1 
 2901  2905     1 
 2901  2911     1 
 2902  2906     1 
 2902  2907     1 
 2903  2908     1 
 2903  2911     1 
 2904  2906     1 
 2904  2907     1 
 2904  2912     1 
 2905  2909     1 
 2905  2910     1 
 2905  2912     1 
 2906  2908     1 
 2906  2911     1 
 2908  2912     1 
 2909  2911     1 
 2910  2911     1 
 2912  2915     1 
 2913  2920     1 
 2913  2921     1 
 2913  2922     1 
 2914  2916     1 
 2914  2917     1 
 2914  2919     1 
 2915  2919     1 
 2916  2918     1 
 2917  2918     1 
 2918  2923     1 
 2919  2924     1 
 2919  2925     1 
 2919  2926     1 
 2920  2923     1 
 2921  2923     1 
 2922  2927     1 
 2922  2928     1 
 2922  2945     1 
 2923  2929     1 
 2923  2946     1 
 2923  2947     1 
 2923  2950     1 
 2924  2927     1 
 2924  2928     1 
 2924  2945     1 
 2925  2927     1 
 2925  2928     1 
 2925  2945     1 
 2926  2930     1 
 2926  2931     1 
 2926  2948     1 
 2926  2949     1 
 2926  2951     1 
 2927  2929     1 
 2927  2946     1 
 2927  2947     1 
 2927  2950     1 
 2928  2932     1 
 2928  2944     1 
 2928  2946     1 
 2928  2948     1 
 2928  2949     1 
 2928  2950     1 
 2929  2933     1 
 2929  2934     1 
 2929  2935     1 
 2929  2943     1 
 2929  2946     1 
 2929  2950     1 
 2930  2932     1 
 2930  2944     1 
 2930  2945     1 
 2930  2948     1 
 2930  2949     1 
 2931  2936     1 
 2931  2941     1 
 2931  2945     1 
 2931  2948     1 
 2931  2949     1 
 2932  2936     1 
 2932  2943     1 
 2932  2947     1 
 2933  2935     1 
 2933  2944     1 
 2934  2937     1 
 2934  2940     1 
 2934  2943     1 
 2935  2938     1 
 2935  2939     1 
 2935  2941     1 
 2936  2942     1 
 2936  2943     1 
 2937  2941     1 
 2937  2944     1 
 2938  2940     1 
 2939  2940     1 
 2940  2944     1 
 2942  2944     1 
 2944  2947     1 
 2945  2952     1 
 2945  2953     1 
 2945  2954     1 
 2946  2948     1 
 2946  2949     1 
 2946  2951     1 
 2947  2951     1 
 2948  2950     1 
 2949  2950     1 
 2950  2955     1 
 2951  2956     1 
 2951  2957     1 
 2951  2958     1 
 2952  2955     1 
 2953  2955     1 
 2954  2959     1 
 2954  2960     1 
 2954  2978     1 
 2955  2961     1 
 2955  2979     1 
 2955  2980     1 
 2955  2983     1 
 2956  2959     1 
 2956  2960     1 
 2956  2978     1 
 2957  2959     1 
 2957  2960     1 
 2957  2978     1 
 2958  2962     1 
 2958  2963     1 
 2958  2981     1 
 2958  2982     1 
 2958  2984     1 
 2959  2961     1 
 2959  2979     1 
 2959  2980     1 
 2959  2983     1 
 2960  2964     1 
 2960  2977     1 
 2960  2979     1 
 2960  2981     1 
 2960  2982     1 
 2960  2983     1 
 2961  2965     1 
 2961  2966     1 
 2961  2967     1 
 2961  2976     1 
 2961  2979     1 
 2961  2983     1 
 2962  2964     1 
 2962  2977     1 
 2962  2978     1 
 2962  2981     1 
 2962  2982     1 
 2963  2968     1 
 2963  2972     1 
 2963  2978     1 
 2963  2981     1 
 2963  2982     1 
 2964  2968     1 
 2964  2976     1 
 2964  2980     1 
 2965  2967     1 
 2965  2977     1 
 2966  2969     1 
 2966  2970     1 
 2966  2976     1 
 2967  2971     1 
 2967  2972     1 
 2968  2973     1 
 2968  2976     1 
 2969  2971     1 
 2969  2972     1 
 2969  2977     1 
 2970  2974     1 
 2970  2975     1 
 2970  2977     1 
 2971  2973     1 
 2971  2976     1 
 2973  2977     1 
 2974  2976     1 
 2975  2976     1 
 2977  2980     1 
 2978  2985     1 
 2978  2986     1 
 2978  2987     1 
 2979  2981     1 
 2979  2982     1 
 2979  2984     1 
 2980  2984     1 
 2981  2983     1 
 2982  2983     1 
 2983  2988     1 
 2984  2989     1 
 2984  2990     1 
 2984  2991     1 
 2985  2988     1 
 2986  2988     1 
 2987  2992     1 
 2987  2993     1 
 2987  3010     1 
 2988  2994     1 
 2988  3011     1 
 2988  3012     1 
 2988  3015     1 
 2989  2992     1 
 2989  2993     1 
 2989  3010     1 
 2990  2992     1 
 2990  2993     1 
 2990  3010     1 
 2991  2995     1 
 2991  2996     1 
 2991  3013     1 
 2991  3014     1 
 2991  3016     1 
 2992  2994     1 
 2992  3011     1 
 2992  3012     1 
 2992  3015     1 
 2993  2997     1 
 2993  3009     1 
 2993  3011     1 
 2993  3013     1 
 2993  3014     1 
 2993  3015     1 
 2994  2998     1 
 2994  2999     1 
 2994  3000     1 
 2994  3008     1 
 2994  3011     1 
 2994  3015     1 
 2995  2997     1 
 2995  3009     1 
 2995  3010     1 
 2995  3013     1 
 2995  3014     1 
 2996  3001     1 
 2996  3006     1 
 2996  3010     1 
 2996  3013     1 
 2996  3014     1 
 2997  3001     1 
 2997  3008     1 
 2997  3012     1 
 2998  3000     1 
 2998  3009     1 
 2999  3002     1 
 2999  3005     1 
 2999  3008     1 
 3000  3003     1 
 3000  3004     1 
 3000  3006     1 
 3001  3007     1 
 3001  3008     1 
 3002  3006     1 
 3002  3009     1 
 3003  3005     1 
 3004  3005     1 
 3005  3009     1 
 3007  3009     1 
 3009  3012     1 
 3010  3017     1 
 3010  3018     1 
 3010  3019     1 
 3011  3013     1 
 3011  3014     1 
 3011  3016     1 
 3012  3016     1 
 3013  3015     1 
 3014  3015     1 
 3015  3020     1 
 3016  3021     1 
 3016  3022     1 
 3016  3023     1 
 3017  3020     1 
 3018  3020     1 
 3019  3024     1 
 3019  3025     1 
 3019  3043     1 
 3020  3026     1 
 3020  3044     1 
 3020  3045     1 
 3020  3048     1 
 3021  3024     1 
 3021  3025     1 
 3021  3043     1 
 3022  3024     1 
 3022  3025     1 
 3022  3043     1 
 3023  3027     1 
 3023  3028     1 
 3023  3046     1 
 3023  3047     1 
 3023  3049     1 
 3024  3026     1 
 3024  3044     1 
 3024  3045     1 
 3024  3048     1 
 3025  3029     1 
 3025  3042     1 
 3025  3044     1 
 3025  3046     1 
 3025  3047     1 
 3025  3048     1 
 3026  3030     1 
 3026  3031     1 
 3026  3032     1 
 3026  3041     1 
 3026  3044     1 
 3026  3048     1 
 3027  3029     1 
 3027  3042     1 
 3027  3043     1 
 3027  3046     1 
 3027  3047     1 
 3028  3033     1 
 3028  3037     1 
 3028  3043     1 
 3028  3046     1 
 3028  3047     1 
 3029  3033     1 
 3029  3041     1 
 3029  3045     1 
 3030  3032     1 
 3030  3042     1 
 3031  3034     1 
 3031  3035     1 
 3031  3041     1 
 3032  3036     1 
 3032  3037     1 
 3033  3038     1 
 3033  3041     1 
 3034  3036     1 
 3034  3037     1 
 3034  3042     1 
 3035  3039     1 
 3035  3040     1 
 3035  3042     1 
 3036  3038     1 
 3036  3041     1 
 3038  3042     1 
 3039  3041     1 
 3040  3041     1 
 3042  3045     1 
 3043  3050     1 
 3043  3051     1 
 3043  3052     1 
 3044  3046     1 
 3044  3047     1 
 3044  3049     1 
 3045  3049     1 
 3046  3048     1 
 3047  3048     1 
 3048  3053     1 
 3049  3054     1 
 3049  3055     1 
 3049  3056     1 
 3050  3053     1 
 3051  3053     1 
 3052  3057     1 
 3052  3058     1 
 3052  3075     1 
 3053  3059     1 
 3053  3076     1 
 3053  3077     1 
 3053  3080     1 
 3054  3057     1 
 3054  3058     1 
 3054  3075     1 
 3055  3057     1 
 3055  3058     1 
 3055  3075     1 
 3056  3060     1 
 3056  3061     1 
 3056  3078     1 
 3056  3079     1 
 3056  3081     1 
 3057  3059     1 
 3057  3076     1 
 3057  3077     1 
 3057  3080     1 
 3058  3062     1 
 3058  3074     1 
 3058  3076     1 
 3058  3078     1 
 3058  3079     1 
 3058  3080     1 
 3059  3063     1 
 3059  3064     1 
 3059  3065     1 
 3059  3073     1 
 3059  3076     1 
 3059  3080     1 
 3060  3062     1 
 3060  3074     1 
 3060  3075     1 
 3060  3078     1 
 3060  3079     1 
 3061  3066     1 
 3061  3071     1 
 3061  3075     1 
 3061  3078     1 
 3061  3079     1 
 3062  3066     1 
 3062  3073     1 
 3062  3077     1 
 3063  3065     1 
 3063  3074     1 
 3064  3067     1 
 3064  3070     1 
 3064  3073     1 
 3065  3068     1 
 3065  3069     1 
 3065  3071     1 
 3066  3072     1 
 3066  3073     1 
 3067  3071     1 
 3067  3074     1 
 3068  3070     1 
 3069  3070     1 
 3070  3074     1 
 3072  3074     1 
 3074  3077     1 
 3075  3082     1 
 3075  3083     1 
 3075  3084     1 
 3076  3078     1 
 3076  3079     1 
 3076  3081     1 
 3077  3081     1 
 3078  3080     1 
 3079  3080     1 
 3080  3085     1 
 3081  3086     1 
 3081  3087     1 
 3081  3088     1 
 3082  3085     1 
 3083  3085     1 
 3084  3089     1 
 3084  3090     1 
 3084  3108     1 
 3085  3091     1 
 3085  3109     1 
 3085  3110     1 
 3085  3113     1 
 3086  3089     1 
 3086  3090     1 
 3086  3108     1 
 3087  3089     1 
 3087  3090     1 
 3087  3108     1 
 3088  3092     1 
 3088  3093     1 
 3088  3111     1 
 3088  3112     1 
 3088  3114     1 
 3089  3091     1 
 3089  3109     1 
 3089  3110     1 
 3089  3113     1 
 3090  3094     1 
 3090  3107     1 
 3090  3109     1 
 3090  3111     1 
 3090  3112     1 
 3090  3113     1 
 3091  3095     1 
 3091  3096     1 
 3091  3097     1 
 3091  3106     1 
 3091  3109     1 
 3091  3113     1 
 3092  3094     1 
 3092  3107     1 
 3092  3108     1 
 3092  3111     1 
 3092  3112     1 
 3093  3098     1 
 3093  3102     1 
 3093  3108     1 
 3093  3111     1 
 3093  3112     1 
 3094  3098     1 
 3094  3106     1 
 3094  3110     1 
 3095  3097     1 
 3095  3107     1 
 3096  3099     1 
 3096  3100     1 
 3096  3106     1 
 3097  3101     1 
 3097  3102     1 
 3098  3103     1 
 3098  3106     1 
 3099  3101     1 
 3099  3102     1 
 3099  3107     1 
 3100  3104     1 
 3100  3105     1 
 3100  3107     1 
 3101  3103     1 
 3101  3106     1 
 3103  3107     1 
 3104  3106     1 
 3105  3106     1 
 3107  3110     1 
 3108  3115     1 
 3108  3116     1 
 3108  3117     1 
 3109  3111     1 
 3109  3112     1 
 3109  3114     1 
 3110  3114     1 
 3111  3113     1 
 3112  3113     1 
 3113  3118     1 
 3114  3119     1 
 3114  3120     1 
 3114  3121     1 
 3115  3118     1 
 3116  3118     1 
 3117  3122     1 
 3117  3123     1 
 3117  3141     1 
 3118  3124     1 
 3118  3142     1 
 3118  3143     1 
 3118  3146     1 
 3119  3122     1 
 3119  3123     1 
 3119  3141     1 
 3120  3122     1 
 3120  3123     1 
 3120  3141     1 
 3121  3125     1 
 3121  3126     1 
 3121  3144     1 
 3121  3145     1 
 3121  3147     1 
 3122  3124     1 
 3122  3142     1 
 3122  3143     1 
 3122  3146     1 
 3123  3127     1 
 3123  3140     1 
 3123  3142     1 
 3123  3144     1 
 3123  3145     1 
 3123  3146     1 
 3124  3128     1 
 3124  3129     1 
 3124  3130     1 
 3124  3139     1 
 3124  3142     1 
 3124  3146     1 
 3125  3127     1 
 3125  3140     1 
 3125  3141     1 
 3125  3144     1 
 3125  3145     1 
 3126  3131     1 
 3126  3135     1 
 3126  3141     1 
 3126  3144     1 
 3126  3145     1 
 3127  3131     1 
 3127  3139     1 
 3127  3143     1 
 3128  3130     1 
 3128  3140     1 
 3129  3132     1 
 3129  3133     1 
 3129  3139     1 
 3130  3134     1 
 3130  3135     1 
 3131  3136     1 
 3131  3139     1 
 3132  3134     1 
 3132  3135     1 
 3132  3140     1 
 3133  3137     1 
 3133  3138     1 
 3133  3140     1 
 3134  3136     1 
 3134  3139     1 
 3136  3140     1 
 3137  3139     1 
 3138  3139     1 
 3140  3143     1 
 3141  3148     1 
 3141  3149     1 
 3141  3150     1 
 3142  3144     1 
 3142  3145     1 
 3142  3147     1 
 3143  3147     1 
 3144  3146     1 
 3145  3146     1 
 3146  3151     1 
 3147  3152     1 
 3147  3153     1 
 3147  3154     1 
 3148  3151     1 
 3149  3151     1 
 3150  3155     1 
 3150  3156     1 
 3150  3173     1 
 3151  3157     1 
 3151  3174     1 
 3151  3175     1 
 3151  3178     1 
 3152  3155     1 
 3152  3156     1 
 3152  3173     1 
 3153  3155     1 
 3153  3156     1 
 3153  3173     1 
 3154  3158     1 
 3154  3159     1 
 3154  3176     1 
 3154  3177     1 
 3154  3179     1 
 3155  3157     1 
 3155  3174     1 
 3155  3175     1 
 3155  3178     1 
 3156  3160     1 
 3156  3171     1 
 3156  3174     1 
 3156  3176     1 
 3156  3177     1 
 3156  3178     1 
 3157  3161     1 
 3157  3162     1 
 3157  3169     1 
 3157  3172     1 
 3157  3174     1 
 3157  3178     1 
 3158  3160     1 
 3158  3171     1 
 3158  3173     1 
 3158  3176     1 
 3158  3177     1 
 3159  3163     1 
 3159  3167     1 
 3159  3170     1 
 3159  3173     1 
 3159  3176     1 
 3159  3177     1 
 3160  3164     1 
 3160  3165     1 
 3160  3166     1 
 3160  3168     1 
 3160  3169     1 
 3160  3172     1 
 3160  3175     1 
 3161  3163     1 
 3161  3167     1 
 3161  3171     1 
 3162  3170     1 
 3162  3171     1 
 3163  3168     1 
 3163  3169     1 
 3164  3167     1 
 3165  3167     1 
 3166  3167     1 
 3167  3172     1 
 3168  3170     1 
 3168  3171     1 
 3170  3172     1 
 3171  3175     1 
 3173  3180     1 
 3173  3181     1 
 3173  3182     1 
 3174  3176     1 
 3174  3177     1 
 3174  3179     1 
 3175  3179     1 
 3176  3178     1 
 3177  3178     1 
 3178  3183     1 
 3179  3184     1 
 3179  3185     1 
 3179  3186     1 
 3180  3183     1 
 3181  3183     1 
 3182  3187     1 
 3182  3188     1 
 3182  3205     1 
 3183  3189     1 
 3183  3206     1 
 3183  3207     1 
 3183  3210     1 
 3184  3187     1 
 3184  3188     1 
 3184  3205     1 
 3185  3187     1 
 3185  3188     1 
 3185  3205     1 
 3186  3190     1 
 3186  3191     1 
 3186  3208     1 
 3186  3209     1 
 3186  3211     1 
 3187  3189     1 
 3187  3206     1 
 3187  3207     1 
 3187  3210     1 
 3188  3192     1 
 3188  3204     1 
 3188  3206     1 
 3188  3208     1 
 3188  3209     1 
 3188  3210     1 
 3189  3193     1 
 3189  3194     1 
 3189  3195     1 
 3189  3203     1 
 3189  3206     1 
 3189  3210     1 
 3190  3192     1 
 3190  3204     1 
 3190  3205     1 
 3190  3208     1 
 3190  3209     1 
 3191  3196     1 
 3191  3201     1 
 3191  3205     1 
 3191  3208     1 
 3191  3209     1 
 3192  3196     1 
 3192  3203     1 
 3192  3207     1 
 3193  3195     1 
 3193  3204     1 
 3194  3197     1 
 3194  3200     1 
 3194  3203     1 
 3195  3198     1 
 3195  3199     1 
 3195  3201     1 
 3196  3202     1 
 3196  3203     1 
 3197  3201     1 
 3197  3204     1 
 3198  3200     1 
 3199  3200     1 
 3200  3204     1 
 3202  3204     1 
 3204  3207     1 
 3205  3212     1 
 3205  3213     1 
 3205  3214     1 
 3206  3208     1 
 3206  3209     1 
 3206  3211     1 
 3207  3211     1 
 3208  3210     1 
 3209  3210     1 
 3210  3215     1 
 3211  3216     1 
 3211  3217     1 
 3211  3218     1 
 3212  3215     1 
 3213  3215     1 
 3214  3219     1 
 3214  3220     1 
 3214  3235     1 
 3215  3221     1 
 3215  3236     1 
 3215  3237     1 
 3215  3240     1 
 3216  3219     1 
 3216  3220     1 
 3216  3235     1 
 3217  3219     1 
 3217  3220     1 
 3217  3235     1 
 3218  3222     1 
 3218  3223     1 
 3218  3238     1 
 3218  3239     1 
 3218  3241     1 
 3219  3221     1 
 3219  3236     1 
 3219  3237     1 
 3219  3240     1 
 3220  3224     1 
 3220  3233     1 
 3220  3236     1 
 3220  3238     1 
 3220  3239     1 
 3220  3240     1 
 3221  3225     1 
 3221  3226     1 
 3221  3232     1 
 3221  3234     1 
 3221  3236     1 
 3221  3240     1 
 3222  3224     1 
 3222  3233     1 
 3222  3235     1 
 3222  3238     1 
 3222  3239     1 
 3223  3227     1 
 3223  3228     1 
 3223  3235     1 
 3223  3238     1 
 3223  3239     1 
 3224  3229     1 
 3224  3232     1 
 3224  3234     1 
 3224  3237     1 
 3225  3227     1 
 3225  3228     1 
 3225  3233     1 
 3226  3230     1 
 3226  3231     1 
 3226  3233     1 
 3227  3229     1 
 3227  3232     1 
 3228  3234     1 
 3229  3233     1 
 3230  3232     1 
 3231  3232     1 
 3233  3237     1 
 3235  3242     1 
 3235  3243     1 
 3235  3244     1 
 3236  3238     1 
 3236  3239     1 
 3236  3241     1 
 3237  3241     1 
 3238  3240     1 
 3239  3240     1 
 3240  3245     1 
 3241  3246     1 
 3241  3247     1 
 3241  3248     1 
 3242  3245     1 
 3243  3245     1 
 3244  3249     1 
 3244  3250     1 
 3244  3268     1 
 3245  3251     1 
 3245  3269     1 
 3245  3270     1 
 3245  3273     1 
 3246  3249     1 
 3246  3250     1 
 3246  3268     1 
 3247  3249     1 
 3247  3250     1 
 3247  3268     1 
 3248  3252     1 
 3248  3253     1 
 3248  3271     1 
 3248  3272     1 
 3248  3274     1 
 3249  3251     1 
 3249  3269     1 
 3249  3270     1 
 3249  3273     1 
 3250  3254     1 
 3250  3267     1 
 3250  3269     1 
 3250  3271     1 
 3250  3272     1 
 3250  3273     1 
 3251  3255     1 
 3251  3256     1 
 3251  3257     1 
 3251  3266     1 
 3251  3269     1 
 3251  3273     1 
 3252  3254     1 
 3252  3267     1 
 3252  3268     1 
 3252  3271     1 
 3252  3272     1 
 3253  3258     1 
 3253  3262     1 
 3253  3268     1 
 3253  3271     1 
 3253  3272     1 
 3254  3258     1 
 3254  3266     1 
 3254  3270     1 
 3255  3257     1 
 3255  3267     1 
 3256  3259     1 
 3256  3260     1 
 3256  3266     1 
 3257  3261     1 
 3257  3262     1 
 3258  3263     1 
 3258  3266     1 
 3259  3261     1 
 3259  3262     1 
 3259  3267     1 
 3260  3264     1 
 3260  3265     1 
 3260  3267     1 
 3261  3263     1 
 3261  3266     1 
 3263  3267     1 
 3264  3266     1 
 3265  3266     1 
 3267  3270     1 
 3268  3275     1 
 3268  3276     1 
 3268  3277     1 
 3269  3271     1 
 3269  3272     1 
 3269  3274     1 
 3270  3274     1 
 3271  3273     1 
 3272  3273     1 
 3273  3278     1 
 3274  3279     1 
 3274  3280     1 
 3274  3281     1 
 3275  3278     1 
 3276  3278     1 
 3277  3282     1 
 3277  3283     1 
 3277  3301     1 
 3278  3284     1 
 3278  3302     1 
 3278  3303     1 
 3278  3306     1 
 3279  3282     1 
 3279  3283     1 
 3279  3301     1 
 3280  3282     1 
 3280  3283     1 
 3280  3301     1 
 3281  3285     1 
 3281  3286     1 
 3281  3304     1 
 3281  3305     1 
 3281  3307     1 
 3282  3284     1 
 3282  3302     1 
 3282  3303     1 
 3282  3306     1 
 3283  3287     1 
 3283  3300     1 
 3283  3302     1 
 3283  3304     1 
 3283  3305     1 
 3283  3306     1 
 3284  3288     1 
 3284  3289     1 
 3284  3290     1 
 3284  3299     1 
 3284  3302     1 
 3284  3306     1 
 3285  3287     1 
 3285  3300     1 
 3285  3301     1 
 3285  3304     1 
 3285  3305     1 
 3286  3291     1 
 3286  3295     1 
 3286  3301     1 
 3286  3304     1 
 3286  3305     1 
 3287  3291     1 
 3287  3299     1 
 3287  3303     1 
 3288  3290     1 
 3288  3300     1 
 3289  3292     1 
 3289  3293     1 
 3289  3299     1 
 3290  3294     1 
 3290  3295     1 
 3291  3296     1 
 3291  3299     1 
 3292  3294     1 
 3292  3295     1 
 3292  3300     1 
 3293  3297     1 
 3293  3298     1 
 3293  3300     1 
 3294  3296     1 
 3294  3299     1 
 3296  3300     1 
 3297  3299     1 
 3298  3299     1 
 3300  3303     1 
 3301  3308     1 
 3301  3309     1 
 3301  3310     1 
 3302  3304     1 
 3302  3305     1 
 3302  3307     1 
 3303  3307     1 
 3304  3306     1 
 3305  3306     1 
 3306  3311     1 
 3307  3312     1 
 3307  3313     1 
 3307  3314     1 
 3308  3311     1 
 3309  3311     1 
 3310  3315     1 
 3310  3316     1 
 3310  3333     1 
 3311  3317     1 
 3311  3334     1 
 3311  3335     1 
 3311  3338     1 
 3312  3315     1 
 3312  3316     1 
 3312  3333     1 
 3313  3315     1 
 3313  3316     1 
 3313  3333     1 
 3314  3318     1 
 3314  3319     1 
 3314  3336     1 
 3314  3337     1 
 3314  3339     1 
 3315  3317     1 
 3315  3334     1 
 3315  3335     1 
 3315  3338     1 
 3316  3320     1 
 3316  3332     1 
 3316  3334     1 
 3316  3336     1 
 3316  3337     1 
 3316  3338     1 
 3317  3321     1 
 3317  3322     1 
 3317  3323     1 
 3317  3331     1 
 3317  3334     1 
 3317  3338     1 
 3318  3320     1 
 3318  3332     1 
 3318  3333     1 
 3318  3336     1 
 3318  3337     1 
 3319  3324     1 
 3319  3329     1 
 3319  3333     1 
 3319  3336     1 
 3319  3337     1 
 3320  3324     1 
 3320  3331     1 
 3320  3335     1 
 3321  3323     1 
 3321  3332     1 
 3322  3325     1 
 3322  3328     1 
 3322  3331     1 
 3323  3326     1 
 3323  3327     1 
 3323  3329     1 
 3324  3330     1 
 3324  3331     1 
 3325  3329     1 
 3325  3332     1 
 3326  3328     1 
 3327  3328     1 
 3328  3332     1 
 3330  3332     1 
 3332  3335     1 
 3333  3340     1 
 3333  3341     1 
 3333  3342     1 
 3334  3336     1 
 3334  3337     1 
 3334  3339     1 
 3335  3339     1 
 3336  3338     1 
 3337  3338     1 
 3338  3343     1 
 3339  3344     1 
 3339  3345     1 
 3339  3346     1 
 3340  3343     1 
 3341  3343     1 
 3342  3347     1 
 3342  3348     1 
 3342  3366     1 
 3343  3349     1 
 3343  3367     1 
 3343  3368     1 
 3343  3371     1 
 3344  3347     1 
 3344  3348     1 
 3344  3366     1 
 3345  3347     1 
 3345  3348     1 
 3345  3366     1 
 3346  3350     1 
 3346  3351     1 
 3346  3369     1 
 3346  3370     1 
 3346  3372     1 
 3347  3349     1 
 3347  3367     1 
 3347  3368     1 
 3347  3371     1 
 3348  3352     1 
 3348  3365     1 
 3348  3367     1 
 3348  3369     1 
 3348  3370     1 
 3348  3371     1 
 3349  3353     1 
 3349  3354     1 
 3349  3355     1 
 3349  3364     1 
 3349  3367     1 
 3349  3371     1 
 3350  3352     1 
 3350  3365     1 
 3350  3366     1 
 3350  3369     1 
 3350  3370     1 
 3351  3356     1 
 3351  3360     1 
 3351  3366     1 
 3351  3369     1 
 3351  3370     1 
 3352  3356     1 
 3352  3364     1 
 3352  3368     1 
 3353  3355     1 
 3353  3365     1 
 3354  3357     1 
 3354  3358     1 
 3354  3364     1 
 3355  3359     1 
 3355  3360     1 
 3356  3361     1 
 3356  3364     1 
 3357  3359     1 
 3357  3360     1 
 3357  3365     1 
 3358  3362     1 
 3358  3363     1 
 3358  3365     1 
 3359  3361     1 
 3359  3364     1 
 3361  3365     1 
 3362  3364     1 
 3363  3364     1 
 3365  3368     1 
 3366  3373     1 
 3366  3374     1 
 3366  3375     1 
 3367  3369     1 
 3367  3370     1 
 3367  3372     1 
 3368  3372     1 
 3369  3371     1 
 3370  3371     1 
 3371  3376     1 
 3372  3377     1 
 3372  3378     1 
 3372  3379     1 
 3373  3376     1 
 3374  3376     1 
 3375  3380     1 
 3375  3381     1 
 3375  3396     1 
 3376  3382     1 
 3376  3397     1 
 3376  3398     1 
 3376  3401     1 
 3377  3380     1 
 3377  3381     1 
 3377  3396     1 
 3378  3380     1 
 3378  3381     1 
 3378  3396     1 
 3379  3383     1 
 3379  3384     1 
 3379  3399     1 
 3379  3400     1 
 3379  3402     1 
 3380  3382     1 
 3380  3397     1 
 3380  3398     1 
 3380  3401     1 
 3381  3385     1 
 3381  3394     1 
 3381  3397     1 
 3381  3399     1 
 3381  3400     1 
 3381  3401     1 
 3382  3386     1 
 3382  3387     1 
 3382  3393     1 
 3382  3395     1 
 3382  3397     1 
 3382  3401     1 
 3383  3385     1 
 3383  3394     1 
 3383  3396     1 
 3383  3399     1 
 3383  3400     1 
 3384  3388     1 
 3384  3389     1 
 3384  3396     1 
 3384  3399     1 
 3384  3400     1 
 3385  3390     1 
 3385  3393     1 
 3385  3395     1 
 3385  3398     1 
 3386  3388     1 
 3386  3389     1 
 3386  3394     1 
 3387  3391     1 
 3387  3392     1 
 3387  3394     1 
 3388  3390     1 
 3388  3393     1 
 3389  3395     1 
 3390  3394     1 
 3391  3393     1 
 3392  3393     1 
 3394  3398     1 
 3396  3403     1 
 3396  3404     1 
 3396  3405     1 
 3397  3399     1 
 3397  3400     1 
 3397  3402     1 
 3398  3402     1 
 3399  3401     1 
 3400  3401     1 
 3401  3406     1 
 3402  3407     1 
 3402  3408     1 
 3402  3409     1 
 3403  3406     1 
 3404  3406     1 
 3405  3410     1 
 3405  3411     1 
 3405  3429     1 
 3406  3412     1 
 3406  3430     1 
 3406  3431     1 
 3406  3434     1 
 3407  3410     1 
 3407  3411     1 
 3407  3429     1 
 3408  3410     1 
 3408  3411     1 
 3408  3429     1 
 3409  3413     1 
 3409  3414     1 
 3409  3432     1 
 3409  3433     1 
 3409  3435     1 
 3410  3412     1 
 3410  3430     1 
 3410  3431     1 
 3410  3434     1 
 3411  3415     1 
 3411  3428     1 
 3411  3430     1 
 3411  3432     1 
 3411  3433     1 
 3411  3434     1 
 3412  3416     1 
 3412  3417     1 
 3412  3418     1 
 3412  3427     1 
 3412  3430     1 
 3412  3434     1 
 3413  3415     1 
 3413  3428     1 
 3413  3429     1 
 3413  3432     1 
 3413  3433     1 
 3414  3419     1 
 3414  3423     1 
 3414  3429     1 
 3414  3432     1 
 3414  3433     1 
 3415  3419     1 
 3415  3427     1 
 3415  3431     1 
 3416  3418     1 
 3416  3428     1 
 3417  3420     1 
 3417  3421     1 
 3417  3427     1 
 3418  3422     1 
 3418  3423     1 
 3419  3424     1 
 3419  3427     1 
 3420  3422     1 
 3420  3423     1 
 3420  3428     1 
 3421  3425     1 
 3421  3426     1 
 3421  3428     1 
 3422  3424     1 
 3422  3427     1 
 3424  3428     1 
 3425  3427     1 
 3426  3427     1 
 3428  3431     1 
 3429  3436     1 
 3429  3437     1 
 3429  3438     1 
 3430  3432     1 
 3430  3433     1 
 3430  3435     1 
 3431  3435     1 
 3432  3434     1 
 3433  3434     1 
 3434  3439     1 
 3435  3440     1 
 3435  3441     1 
 3435  3442     1 
 3436  3439     1 
 3437  3439     1 
 3438  3443     1 
 3438  3444     1 
 3438  3462     1 
 3439  3445     1 
 3439  3463     1 
 3439  3464     1 
 3439  3467     1 
 3440  3443     1 
 3440  3444     1 
 3440  3462     1 
 3441  3443     1 
 3441  3444     1 
 3441  3462     1 
 3442  3446     1 
 3442  3447     1 
 3442  3465     1 
 3442  3466     1 
 3442  3468     1 
 3443  3445     1 
 3443  3463     1 
 3443  3464     1 
 3443  3467     1 
 3444  3448     1 
 3444  3461     1 
 3444  3463     1 
 3444  3465     1 
 3444  3466     1 
 3444  3467     1 
 3445  3449     1 
 3445  3450     1 
 3445  3451     1 
 3445  3460     1 
 3445  3463     1 
 3445  3467     1 
 3446  3448     1 
 3446  3461     1 
 3446  3462     1 
 3446  3465     1 
 3446  3466     1 
 3447  3452     1 
 3447  3456     1 
 3447  3462     1 
 3447  3465     1 
 3447  3466     1 
 3448  3452     1 
 3448  3460     1 
 3448  3464     1 
 3449  3451     1 
 3449  3461     1 
 3450  3453     1 
 3450  3454     1 
 3450  3460     1 
 3451  3455     1 
 3451  3456     1 
 3452  3457     1 
 3452  3460     1 
 3453  3455     1 
 3453  3456     1 
 3453  3461     1 
 3454  3458     1 
 3454  3459     1 
 3454  3461     1 
 3455  3457     1 
 3455  3460     1 
 3457  3461     1 
 3458  3460     1 
 3459  3460     1 
 3461  3464     1 
 3462  3469     1 
 3462  3470     1 
 3462  3471     1 
 3463  3465     1 
 3463  3466     1 
 3463  3468     1 
 3464  3468     1 
 3465  3467     1 
 3466  3467     1 
 3467  3472     1 
 3468  3473     1 
 3468  3474     1 
 3468  3475     1 
 3469  3472     1 
 3470  3472     1 
 3471  3476     1 
 3471  3477     1 
 3471  3494     1 
 3472  3478     1 
 3472  3495     1 
 3472  3496     1 
 3472  3499     1 
 3473  3476     1 
 3473  3477     1 
 3473  3494     1 
 3474  3476     1 
 3474  3477     1 
 3474  3494     1 
 3475  3479     1 
 3475  3480     1 
 3475  3497     1 
 3475  3498     1 
 3475  3500     1 
 3476  3478     1 
 3476  3495     1 
 3476  3496     1 
 3476  3499     1 
 3477  3481     1 
 3477  3493     1 
 3477  3495     1 
 3477  3497     1 
 3477  3498     1 
 3477  3499     1 
 3478  3482     1 
 3478  3483     1 
 3478  3484     1 
 3478  3492     1 
 3478  3495     1 
 3478  3499     1 
 3479  3481     1 
 3479  3493     1 
 3479  3494     1 
 3479  3497     1 
 3479  3498     1 
 3480  3485     1 
 3480  3490     1 
 3480  3494     1 
 3480  3497     1 
 3480  3498     1 
 3481  3485     1 
 3481  3492     1 
 3481  3496     1 
 3482  3484     1 
 3482  3493     1 
 3483  3486     1 
 3483  3489     1 
 3483  3492     1 
 3484  3487     1 
 3484  3488     1 
 3484  3490     1 
 3485  3491     1 
 3485  3492     1 
 3486  3490     1 
 3486  3493     1 
 3487  3489     1 
 3488  3489     1 
 3489  3493     1 
 3491  3493     1 
 3493  3496     1 
 3494  3501     1 
 3494  3502     1 
 3494  3503     1 
 3495  3497     1 
 3495  3498     1 
 3495  3500     1 
 3496  3500     1 
 3497  3499     1 
 3498  3499     1 
 3499  3504     1 
 3500  3505     1 
 3500  3506     1 
 3500  3507     1 
 3501  3504     1 
 3502  3504     1 
 3503  3508     1 
 3503  3509     1 
 3503  3524     1 
 3504  3510     1 
 3504  3525     1 
 3504  3526     1 
 3504  3529     1 
 3505  3508     1 
 3505  3509     1 
 3505  3524     1 
 3506  3508     1 
 3506  3509     1 
 3506  3524     1 
 3507  3511     1 
 3507  3512     1 
 3507  3527     1 
 3507  3528     1 
 3507  3530     1 
 3508  3510     1 
 3508  3525     1 
 3508  3526     1 
 3508  3529     1 
 3509  3513     1 
 3509  3522     1 
 3509  3525     1 
 3509  3527     1 
 3509  3528     1 
 3509  3529     1 
 3510  3514     1 
 3510  3515     1 
 3510  3521     1 
 3510  3523     1 
 3510  3525     1 
 3510  3529     1 
 3511  3513     1 
 3511  3522     1 
 3511  3524     1 
 3511  3527     1 
 3511  3528     1 
 3512  3516     1 
 3512  3517     1 
 3512  3524     1 
 3512  3527     1 
 3512  3528     1 
 3513  3518     1 
 3513  3521     1 
 3513  3523     1 
 3513  3526     1 
 3514  3516     1 
 3514  3517     1 
 3514  3522     1 
 3515  3519     1 
 3515  3520     1 
 3515  3522     1 
 3516  3518     1 
 3516  3521     1 
 3517  3523     1 
 3518  3522     1 
 3519  3521     1 
 3520  3521     1 
 3522  3526     1 
 3524  3531     1 
 3524  3532     1 
 3524  3533     1 
 3525  3527     1 
 3525  3528     1 
 3525  3530     1 
 3526  3530     1 
 3527  3529     1 
 3528  3529     1 
 3529  3534     1 
 3530  3535     1 
 3530  3536     1 
 3530  3537     1 
 3531  3534     1 
 3532  3534     1 
 3533  3538     1 
 3533  3539     1 
 3533  3554     1 
 3534  3540     1 
 3534  3555     1 
 3534  3556     1 
 3534  3559     1 
 3535  3538     1 
 3535  3539     1 
 3535  3554     1 
 3536  3538     1 
 3536  3539     1 
 3536  3554     1 
 3537  3541     1 
 3537  3542     1 
 3537  3557     1 
 3537  3558     1 
 3537  3560     1 
 3538  3540     1 
 3538  3555     1 
 3538  3556     1 
 3538  3559     1 
 3539  3543     1 
 3539  3552     1 
 3539  3555     1 
 3539  3557     1 
 3539  3558     1 
 3539  3559     1 
 3540  3544     1 
 3540  3545     1 
 3540  3551     1 
 3540  3553     1 
 3540  3555     1 
 3540  3559     1 
 3541  3543     1 
 3541  3552     1 
 3541  3554     1 
 3541  3557     1 
 3541  3558     1 
 3542  3546     1 
 3542  3547     1 
 3542  3554     1 
 3542  3557     1 
 3542  3558     1 
 3543  3548     1 
 3543  3551     1 
 3543  3553     1 
 3543  3556     1 
 3544  3546     1 
 3544  3547     1 
 3544  3552     1 
 3545  3549     1 
 3545  3550     1 
 3545  3552     1 
 3546  3548     1 
 3546  3551     1 
 3547  3553     1 
 3548  3552     1 
 3549  3551     1 
 3550  3551     1 
 3552  3556     1 
 3554  3561     1 
 3554  3562     1 
 3554  3563     1 
 3555  3557     1 
 3555  3558     1 
 3555  3560     1 
 3556  3560     1 
 3557  3559     1 
 3558  3559     1 
 3559  3564     1 
 3560  3565     1 
 3560  3566     1 
 3560  3567     1 
 3561  3564     1 
 3562  3564     1 
 3563  3568     1 
 3563  3569     1 
 3563  3586     1 
 3564  3570     1 
 3564  3587     1 
 3564  3588     1 
 3564  3591     1 
 3565  3568     1 
 3565  3569     1 
 3565  3586     1 
 3566  3568     1 
 3566  3569     1 
 3566  3586     1 
 3567  3571     1 
 3567  3572     1 
 3567  3589     1 
 3567  3590     1 
 3567  3592     1 
 3568  3570     1 
 3568  3587     1 
 3568  3588     1 
 3568  3591     1 
 3569  3573     1 
 3569  3585     1 
 3569  3587     1 
 3569  3589     1 
 3569  3590     1 
 3569  3591     1 
 3570  3574     1 
 3570  3575     1 
 3570  3576     1 
 3570  3584     1 
 3570  3587     1 
 3570  3591     1 
 3571  3573     1 
 3571  3585     1 
 3571  3586     1 
 3571  3589     1 
 3571  3590     1 
 3572  3577     1 
 3572  3582     1 
 3572  3586     1 
 3572  3589     1 
 3572  3590     1 
 3573  3577     1 
 3573  3584     1 
 3573  3588     1 
 3574  3576     1 
 3574  3585     1 
 3575  3578     1 
 3575  3581     1 
 3575  3584     1 
 3576  3579     1 
 3576  3580     1 
 3576  3582     1 
 3577  3583     1 
 3577  3584     1 
 3578  3582     1 
 3578  3585     1 
 3579  3581     1 
 3580  3581     1 
 3581  3585     1 
 3583  3585     1 
 3585  3588     1 
 3586  3593     1 
 3586  3594     1 
 3586  3595     1 
 3587  3589     1 
 3587  3590     1 
 3587  3592     1 
 3588  3592     1 
 3589  3591     1 
 3590  3591     1 
 3591  3596     1 
 3592  3597     1 
 3592  3598     1 
 3592  3599     1 
 3593  3596     1 
 3594  3596     1 
 3595  3600     1 
 3595  3601     1 
 3595  3616     1 
 3596  3602     1 
 3596  3617     1 
 3596  3618     1 
 3596  3621     1 
 3597  3600     1 
 3597  3601     1 
 3597  3616     1 
 3598  3600     1 
 3598  3601     1 
 3598  3616     1 
 3599  3603     1 
 3599  3604     1 
 3599  3619     1 
 3599  3620     1 
 3599  3622     1 
 3600  3602     1 
 3600  3617     1 
 3600  3618     1 
 3600  3621     1 
 3601  3605     1 
 3601  3614     1 
 3601  3617     1 
 3601  3619     1 
 3601  3620     1 
 3601  3621     1 
 3602  3606     1 
 3602  3607     1 
 3602  3613     1 
 3602  3615     1 
 3602  3617     1 
 3602  3621     1 
 3603  3605     1 
 3603  3614     1 
 3603  3616     1 
 3603  3619     1 
 3603  3620     1 
 3604  3608     1 
 3604  3609     1 
 3604  3616     1 
 3604  3619     1 
 3604  3620     1 
 3605  3610     1 
 3605  3613     1 
 3605  3615     1 
 3605  3618     1 
 3606  3608     1 
 3606  3609     1 
 3606  3614     1 
 3607  3611     1 
 3607  3612     1 
 3607  3614     1 
 3608  3610     1 
 3608  3613     1 
 3609  3615     1 
 3610  3614     1 
 3611  3613     1 
 3612  3613     1 
 3614  3618     1 
 3616  3623     1 
 3616  3624     1 
 3616  3625     1 
 3617  3619     1 
 3617  3620     1 
 3617  3622     1 
 3618  3622     1 
 3619  3621     1 
 3620  3621     1 
 3621  3626     1 
 3622  3627     1 
 3622  3628     1 
 3622  3629     1 
 3623  3626     1 
 3624  3626     1 
 3625  3630     1 
 3625  3631     1 
 3625  3646     1 
 3626  3632     1 
 3626  3647     1 
 3626  3648     1 
 3626  3651     1 
 3627  3630     1 
 3627  3631     1 
 3627  3646     1 
 3628  3630     1 
 3628  3631     1 
 3628  3646     1 
 3629  3633     1 
 3629  3634     1 
 3629  3649     1 
 3629  3650     1 
 3629  3652     1 
 3630  3632     1 
 3630  3647     1 
 3630  3648     1 
 3630  3651     1 
 3631  3635     1 
 3631  3644     1 
 3631  3647     1 
 3631  3649     1 
 3631  3650     1 
 3631  3651     1 
 3632  3636     1 
 3632  3637     1 
 3632  3643     1 
 3632  3645     1 
 3632  3647     1 
 3632  3651     1 
 3633  3635     1 
 3633  3644     1 
 3633  3646     1 
 3633  3649     1 
 3633  3650     1 
 3634  3638     1 
 3634  3639     1 
 3634  3646     1 
 3634  3649     1 
 3634  3650     1 
 3635  3640     1 
 3635  3643     1 
 3635  3645     1 
 3635  3648     1 
 3636  3638     1 
 3636  3639     1 
 3636  3644     1 
 3637  3641     1 
 3637  3642     1 
 3637  3644     1 
 3638  3640     1 
 3638  3643     1 
 3639  3645     1 
 3640  3644     1 
 3641  3643     1 
 3642  3643     1 
 3644  3648     1 
 3646  3653     1 
 3646  3654     1 
 3646  3655     1 
 3647  3649     1 
 3647  3650     1 
 3647  3652     1 
 3648  3652     1 
 3649  3651     1 
 3650  3651     1 
 3651  3656     1 
 3652  3657     1 
 3652  3658     1 
 3652  3659     1 
 3653  3656     1 
 3654  3656     1 
 3655  3660     1 
 3655  3661     1 
 3655  3676     1 
 3656  3662     1 
 3656  3677     1 
 3656  3678     1 
 3656  3681     1 
 3657  3660     1 
 3657  3661     1 
 3657  3676     1 
 3658  3660     1 
 3658  3661     1 
 3658  3676     1 
 3659  3663     1 
 3659  3664     1 
 3659  3679     1 
 3659  3680     1 
 3659  3682     1 
 3660  3662     1 
 3660  3677     1 
 3660  3678     1 
 3660  3681     1 
 3661  3665     1 
 3661  3674     1 
 3661  3677     1 
 3661  3679     1 
 3661  3680     1 
 3661  3681     1 
 3662  3666     1 
 3662  3667     1 
 3662  3673     1 
 3662  3675     1 
 3662  3677     1 
 3662  3681     1 
 3663  3665     1 
 3663  3674     1 
 3663  3676     1 
 3663  3679     1 
 3663  3680     1 
 3664  3668     1 
 3664  3669     1 
 3664  3676     1 
 3664  3679     1 
 3664  3680     1 
 3665  3670     1 
 3665  3673     1 
 3665  3675     1 
 3665  3678     1 
 3666  3668     1 
 3666  3669     1 
 3666  3674     1 
 3667  3671     1 
 3667  3672     1 
 3667  3674     1 
 3668  3670     1 
 3668  3673     1 
 3669  3675     1 
 3670  3674     1 
 3671  3673     1 
 3672  3673     1 
 3674  3678     1 
 3676  3683     1 
 3676  3684     1 
 3676  3685     1 
 3677  3679     1 
 3677  3680     1 
 3677  3682     1 
 3678  3682     1 
 3679  3681     1 
 3680  3681     1 
 3681  3686     1 
 3682  3687     1 
 3682  3688     1 
 3682  3689     1 
 3683  3686     1 
 3684  3686     1 
 3685  3690     1 
 3685  3691     1 
 3685  3706     1 
 3686  3692     1 
 3686  3707     1 
 3686  3708     1 
 3686  3711     1 
 3687  3690     1 
 3687  3691     1 
 3687  3706     1 
 3688  3690     1 
 3688  3691     1 
 3688  3706     1 
 3689  3693     1 
 3689  3694     1 
 3689  3709     1 
 3689  3710     1 
 3689  3712     1 
 3690  3692     1 
 3690  3707     1 
 3690  3708     1 
 3690  3711     1 
 3691  3695     1 
 3691  3704     1 
 3691  3707     1 
 3691  3709     1 
 3691  3710     1 
 3691  3711     1 
 3692  3696     1 
 3692  3697     1 
 3692  3703     1 
 3692  3705     1 
 3692  3707     1 
 3692  3711     1 
 3693  3695     1 
 3693  3704     1 
 3693  3706     1 
 3693  3709     1 
 3693  3710     1 
 3694  3698     1 
 3694  3699     1 
 3694  3706     1 
 3694  3709     1 
 3694  3710     1 
 3695  3700     1 
 3695  3703     1 
 3695  3705     1 
 3695  3708     1 
 3696  3698     1 
 3696  3699     1 
 3696  3704     1 
 3697  3701     1 
 3697  3702     1 
 3697  3704     1 
 3698  3700     1 
 3698  3703     1 
 3699  3705     1 
 3700  3704     1 
 3701  3703     1 
 3702  3703     1 
 3704  3708     1 
 3706  3713     1 
 3706  3714     1 
 3706  3715     1 
 3707  3709     1 
 3707  3710     1 
 3707  3712     1 
 3708  3712     1 
 3709  3711     1 
 3710  3711     1 
 3711  3716     1 
 3712  3717     1 
 3712  3718     1 
 3712  3719     1 
 3713  3716     1 
 3714  3716     1 
 3715  3720     1 
 3715  3721     1 
 3715  3738     1 
 3716  3722     1 
 3716  3739     1 
 3716  3740     1 
 3716  3743     1 
 3717  3720     1 
 3717  3721     1 
 3717  3738     1 
 3718  3720     1 
 3718  3721     1 
 3718  3738     1 
 3719  3723     1 
 3719  3724     1 
 3719  3741     1 
 3719  3742     1 
 3719  3744     1 
 3720  3722     1 
 3720  3739     1 
 3720  3740     1 
 3720  3743     1 
 3721  3725     1 
 3721  3736     1 
 3721  3739     1 
 3721  3741     1 
 3721  3742     1 
 3721  3743     1 
 3722  3726     1 
 3722  3727     1 
 3722  3734     1 
 3722  3737     1 
 3722  3739     1 
 3722  3743     1 
 3723  3725     1 
 3723  3736     1 
 3723  3738     1 
 3723  3741     1 
 3723  3742     1 
 3724  3728     1 
 3724  3732     1 
 3724  3735     1 
 3724  3738     1 
 3724  3741     1 
 3724  3742     1 
 3725  3729     1 
 3725  3730     1 
 3725  3731     1 
 3725  3733     1 
 3725  3734     1 
 3725  3737     1 
 3725  3740     1 
 3726  3728     1 
 3726  3732     1 
 3726  3736     1 
 3727  3735     1 
 3727  3736     1 
 3728  3733     1 
 3728  3734     1 
 3729  3732     1 
 3730  3732     1 
 3731  3732     1 
 3732  3737     1 
 3733  3735     1 
 3733  3736     1 
 3735  3737     1 
 3736  3740     1 
 3738  3745     1 
 3738  3746     1 
 3738  3747     1 
 3739  3741     1 
 3739  3742     1 
 3739  3744     1 
 3740  3744     1 
 3741  3743     1 
 3742  3743     1 
 3743  3748     1 
 3744  3749     1 
 3744  3750     1 
 3744  3751     1 
 3745  3748     1 
 3746  3748     1 
 3747  3752     1 
 3747  3753     1 
 3747  3768     1 
 3748  3754     1 
 3748  3769     1 
 3748  3770     1 
 3748  3773     1 
 3749  3752     1 
 3749  3753     1 
 3749  3768     1 
 3750  3752     1 
 3750  3753     1 
 3750  3768     1 
 3751  3755     1 
 3751  3756     1 
 3751  3771     1 
 3751  3772     1 
 3751  3774     1 
 3752  3754     1 
 3752  3769     1 
 3752  3770     1 
 3752  3773     1 
 3753  3757     1 
 3753  3766     1 
 3753  3769     1 
 3753  3771     1 
 3753  3772     1 
 3753  3773     1 
 3754  3758     1 
 3754  3759     1 
 3754  3765     1 
 3754  3767     1 
 3754  3769     1 
 3754  3773     1 
 3755  3757     1 
 3755  3766     1 
 3755  3768     1 
 3755  3771     1 
 3755  3772     1 
 3756  3760     1 
 3756  3761     1 
 3756  3768     1 
 3756  3771     1 
 3756  3772     1 
 3757  3762     1 
 3757  3765     1 
 3757  3767     1 
 3757  3770     1 
 3758  3760     1 
 3758  3761     1 
 3758  3766     1 
 3759  3763     1 
 3759  3764     1 
 3759  3766     1 
 3760  3762     1 
 3760  3765     1 
 3761  3767     1 
 3762  3766     1 
 3763  3765     1 
 3764  3765     1 
 3766  3770     1 
 3768  3775     1 
 3768  3776     1 
 3768  3777     1 
 3769  3771     1 
 3769  3772     1 
 3769  3774     1 
 3770  3774     1 
 3771  3773     1 
 3772  3773     1 
 3773  3778     1 
 3774  3779     1 
 3774  3780     1 
 3774  3781     1 
 3775  3778     1 
 3776  3778     1 
 3777  3782     1 
 3777  3783     1 
 3777  3798     1 
 3778  3784     1 
 3778  3799     1 
 3778  3800     1 
 3778  3803     1 
 3779  3782     1 
 3779  3783     1 
 3779  3798     1 
 3780  3782     1 
 3780  3783     1 
 3780  3798     1 
 3781  3785     1 
 3781  3786     1 
 3781  3801     1 
 3781  3802     1 
 3781  3804     1 
 3782  3784     1 
 3782  3799     1 
 3782  3800     1 
 3782  3803     1 
 3783  3787     1 
 3783  3796     1 
 3783  3799     1 
 3783  3801     1 
 3783  3802     1 
 3783  3803     1 
 3784  3788     1 
 3784  3789     1 
 3784  3795     1 
 3784  3797     1 
 3784  3799     1 
 3784  3803     1 
 3785  3787     1 
 3785  3796     1 
 3785  3798     1 
 3785  3801     1 
 3785  3802     1 
 3786  3790     1 
 3786  3791     1 
 3786  3798     1 
 3786  3801     1 
 3786  3802     1 
 3787  3792     1 
 3787  3795     1 
 3787  3797     1 
 3787  3800     1 
 3788  3790     1 
 3788  3791     1 
 3788  3796     1 
 3789  3793     1 
 3789  3794     1 
 3789  3796     1 
 3790  3792     1 
 3790  3795     1 
 3791  3797     1 
 3792  3796     1 
 3793  3795     1 
 3794  3795     1 
 3796  3800     1 
 3798  3805     1 
 3798  3806     1 
 3798  3807     1 
 3799  3801     1 
 3799  3802     1 
 3799  3804     1 
 3800  3804     1 
 3801  3803     1 
 3802  3803     1 
 3803  3808     1 
 3804  3809     1 
 3804  3810     1 
 3804  3811     1 
 3805  3808     1 
 3806  3808     1 
 3807  3812     1 
 3807  3813     1 
 3807  3830     1 
 3808  3814     1 
 3808  3831     1 
 3808  3832     1 
 3808  3835     1 
 3809  3812     1 
 3809  3813     1 
 3809  3830     1 
 3810  3812     1 
 3810  3813     1 
 3810  3830     1 
 3811  3815     1 
 3811  3816     1 
 3811  3833     1 
 3811  3834     1 
 3811  3836     1 
 3812  3814     1 
 3812  3831     1 
 3812  3832     1 
 3812  3835     1 
 3813  3817     1 
 3813  3828     1 
 3813  3831     1 
 3813  3833     1 
 3813  3834     1 
 3813  3835     1 
 3814  3818     1 
 3814  3819     1 
 3814  3826     1 
 3814  3829     1 
 3814  3831     1 
 3814  3835     1 
 3815  3817     1 
 3815  3828     1 
 3815  3830     1 
 3815  3833     1 
 3815  3834     1 
 3816  3820     1 
 3816  3824     1 
 3816  3827     1 
 3816  3830     1 
 3816  3833     1 
 3816  3834     1 
 3817  3821     1 
 3817  3822     1 
 3817  3823     1 
 3817  3825     1 
 3817  3826     1 
 3817  3829     1 
 3817  3832     1 
 3818  3820     1 
 3818  3824     1 
 3818  3828     1 
 3819  3827     1 
 3819  3828     1 
 3820  3825     1 
 3820  3826     1 
 3821  3824     1 
 3822  3824     1 
 3823  3824     1 
 3824  3829     1 
 3825  3827     1 
 3825  3828     1 
 3827  3829     1 
 3828  3832     1 
 3830  3837     1 
 3830  3838     1 
 3830  3839     1 
 3831  3833     1 
 3831  3834     1 
 3831  3836     1 
 3832  3836     1 
 3833  3835     1 
 3834  3835     1 
 3835  3840     1 
 3836  3841     1 
 3836  3842     1 
 3836  3843     1 
 3837  3840     1 
 3838  3840     1 
 3839  3844     1 
 3839  3845     1 
 3839  3863     1 
 3840  3846     1 
 3840  3864     1 
 3840  3865     1 
 3840  3868     1 
 3841  3844     1 
 3841  3845     1 
 3841  3863     1 
 3842  3844     1 
 3842  3845     1 
 3842  3863     1 
 3843  3847     1 
 3843  3848     1 
 3843  3866     1 
 3843  3867     1 
 3843  3869     1 
 3844  3846     1 
 3844  3864     1 
 3844  3865     1 
 3844  3868     1 
 3845  3849     1 
 3845  3862     1 
 3845  3864     1 
 3845  3866     1 
 3845  3867     1 
 3845  3868     1 
 3846  3850     1 
 3846  3851     1 
 3846  3852     1 
 3846  3861     1 
 3846  3864     1 
 3846  3868     1 
 3847  3849     1 
 3847  3862     1 
 3847  3863     1 
 3847  3866     1 
 3847  3867     1 
 3848  3853     1 
 3848  3857     1 
 3848  3863     1 
 3848  3866     1 
 3848  3867     1 
 3849  3853     1 
 3849  3861     1 
 3849  3865     1 
 3850  3852     1 
 3850  3862     1 
 3851  3854     1 
 3851  3855     1 
 3851  3861     1 
 3852  3856     1 
 3852  3857     1 
 3853  3858     1 
 3853  3861     1 
 3854  3856     1 
 3854  3857     1 
 3854  3862     1 
 3855  3859     1 
 3855  3860     1 
 3855  3862     1 
 3856  3858     1 
 3856  3861     1 
 3858  3862     1 
 3859  3861     1 
 3860  3861     1 
 3862  3865     1 
 3863  3870     1 
 3863  3871     1 
 3863  3872     1 
 3864  3866     1 
 3864  3867     1 
 3864  3869     1 
 3865  3869     1 
 3866  3868     1 
 3867  3868     1 
 3868  3873     1 
 3869  3874     1 
 3869  3875     1 
 3869  3876     1 
 3870  3873     1 
 3871  3873     1 
 3872  3877     1 
 3872  3878     1 
 3872  3896     1 
 3873  3879     1 
 3873  3897     1 
 3873  3898     1 
 3873  3901     1 
 3874  3877     1 
 3874  3878     1 
 3874  3896     1 
 3875  3877     1 
 3875  3878     1 
 3875  3896     1 
 3876  3880     1 
 3876  3881     1 
 3876  3899     1 
 3876  3900     1 
 3876  3902     1 
 3877  3879     1 
 3877  3897     1 
 3877  3898     1 
 3877  3901     1 
 3878  3882     1 
 3878  3895     1 
 3878  3897     1 
 3878  3899     1 
 3878  3900     1 
 3878  3901     1 
 3879  3883     1 
 3879  3884     1 
 3879  3885     1 
 3879  3894     1 
 3879  3897     1 
 3879  3901     1 
 3880  3882     1 
 3880  3895     1 
 3880  3896     1 
 3880  3899     1 
 3880  3900     1 
 3881  3886     1 
 3881  3890     1 
 3881  3896     1 
 3881  3899     1 
 3881  3900     1 
 3882  3886     1 
 3882  3894     1 
 3882  3898     1 
 3883  3885     1 
 3883  3895     1 
 3884  3887     1 
 3884  3888     1 
 3884  3894     1 
 3885  3889     1 
 3885  3890     1 
 3886  3891     1 
 3886  3894     1 
 3887  3889     1 
 3887  3890     1 
 3887  3895     1 
 3888  3892     1 
 3888  3893     1 
 3888  3895     1 
 3889  3891     1 
 3889  3894     1 
 3891  3895     1 
 3892  3894     1 
 3893  3894     1 
 3895  3898     1 
 3896  3903     1 
 3896  3904     1 
 3896  3905     1 
 3897  3899     1 
 3897  3900     1 
 3897  3902     1 
 3898  3902     1 
 3899  3901     1 
 3900  3901     1 
 3901  3906     1 
 3902  3907     1 
 3902  3908     1 
 3902  3909     1 
 3903  3906     1 
 3904  3906     1 
 3905  3910     1 
 3905  3911     1 
 3905  3929     1 
 3906  3912     1 
 3906  3930     1 
 3906  3931     1 
 3906  3934     1 
 3907  3910     1 
 3907  3911     1 
 3907  3929     1 
 3908  3910     1 
 3908  3911     1 
 3908  3929     1 
 3909  3913     1 
 3909  3914     1 
 3909  3932     1 
 3909  3933     1 
 3909  3935     1 
 3910  3912     1 
 3910  3930     1 
 3910  3931     1 
 3910  3934     1 
 3911  3915     1 
 3911  3928     1 
 3911  3930     1 
 3911  3932     1 
 3911  3933     1 
 3911  3934     1 
 3912  3916     1 
 3912  3917     1 
 3912  3918     1 
 3912  3927     1 
 3912  3930     1 
 3912  3934     1 
 3913  3915     1 
 3913  3928     1 
 3913  3929     1 
 3913  3932     1 
 3913  3933     1 
 3914  3919     1 
 3914  3923     1 
 3914  3929     1 
 3914  3932     1 
 3914  3933     1 
 3915  3919     1 
 3915  3927     1 
 3915  3931     1 
 3916  3918     1 
 3916  3928     1 
 3917  3920     1 
 3917  3921     1 
 3917  3927     1 
 3918  3922     1 
 3918  3923     1 
 3919  3924     1 
 3919  3927     1 
 3920  3922     1 
 3920  3923     1 
 3920  3928     1 
 3921  3925     1 
 3921  3926     1 
 3921  3928     1 
 3922  3924     1 
 3922  3927     1 
 3924  3928     1 
 3925  3927     1 
 3926  3927     1 
 3928  3931     1 
 3929  3936     1 
 3929  3937     1 
 3929  3938     1 
 3930  3932     1 
 3930  3933     1 
 3930  3935     1 
 3931  3935     1 
 3932  3934     1 
 3933  3934     1 
 3934  3939     1 
 3935  3940     1 
 3935  3941     1 
 3935  3942     1 
 3936  3939     1 
 3937  3939     1 
 3938  3943     1 
 3938  3944     1 
 3938  3959     1 
 3939  3945     1 
 3939  3960     1 
 3939  3961     1 
 3939  3964     1 
 3940  3943     1 
 3940  3944     1 
 3940  3959     1 
 3941  3943     1 
 3941  3944     1 
 3941  3959     1 
 3942  3946     1 
 3942  3947     1 
 3942  3962     1 
 3942  3963     1 
 3942  3965     1 
 3943  3945     1 
 3943  3960     1 
 3943  3961     1 
 3943  3964     1 
 3944  3948     1 
 3944  3957     1 
 3944  3960     1 
 3944  3962     1 
 3944  3963     1 
 3944  3964     1 
 3945  3949     1 
 3945  3950     1 
 3945  3956     1 
 3945  3958     1 
 3945  3960     1 
 3945  3964     1 
 3946  3948     1 
 3946  3957     1 
 3946  3959     1 
 3946  3962     1 
 3946  3963     1 
 3947  3951     1 
 3947  3952     1 
 3947  3959     1 
 3947  3962     1 
 3947  3963     1 
 3948  3953     1 
 3948  3956     1 
 3948  3958     1 
 3948  3961     1 
 3949  3951     1 
 3949  3952     1 
 3949  3957     1 
 3950  3954     1 
 3950  3955     1 
 3950  3957     1 
 3951  3953     1 
 3951  3956     1 
 3952  3958     1 
 3953  3957     1 
 3954  3956     1 
 3955  3956     1 
 3957  3961     1 
 3959  3966     1 
 3959  3967     1 
 3959  3968     1 
 3960  3962     1 
 3960  3963     1 
 3960  3965     1 
 3961  3965     1 
 3962  3964     1 
 3963  3964     1 
 3964  3969     1 
 3965  3970     1 
 3965  3971     1 
 3965  3972     1 
 3966  3969     1 
 3967  3969     1 
 3968  3973     1 
 3968  3974     1 
 3968  3989     1 
 3969  3975     1 
 3969  3990     1 
 3969  3991     1 
 3969  3994     1 
 3970  3973     1 
 3970  3974     1 
 3970  3989     1 
 3971  3973     1 
 3971  3974     1 
 3971  3989     1 
 3972  3976     1 
 3972  3977     1 
 3972  3992     1 
 3972  3993     1 
 3972  3995     1 
 3973  3975     1 
 3973  3990     1 
 3973  3991     1 
 3973  3994     1 
 3974  3978     1 
 3974  3987     1 
 3974  3990     1 
 3974  3992     1 
 3974  3993     1 
 3974  3994     1 
 3975  3979     1 
 3975  3980     1 
 3975  3986     1 
 3975  3988     1 
 3975  3990     1 
 3975  3994     1 
 3976  3978     1 
 3976  3987     1 
 3976  3989     1 
 3976  3992     1 
 3976  3993     1 
 3977  3981     1 
 3977  3982     1 
 3977  3989     1 
 3977  3992     1 
 3977  3993     1 
 3978  3983     1 
 3978  3986     1 
 3978  3988     1 
 3978  3991     1 
 3979  3981     1 
 3979  3982     1 
 3979  3987     1 
 3980  3984     1 
 3980  3985     1 
 3980  3987     1 
 3981  3983     1 
 3981  3986     1 
 3982  3988     1 
 3983  3987     1 
 3984  3986     1 
 3985  3986     1 
 3987  3991     1 
 3989  3996     1 
 3989  3997     1 
 3989  3998     1 
 3990  3992     1 
 3990  3993     1 
 3990  3995     1 
 3991  3995     1 
 3992  3994     1 
 3993  3994     1 
 3994  3999     1 
 3995  4000     1 
 3995  4001     1 
 3995  4002     1 
 3996  3999     1 
 3997  3999     1 
 3998  4003     1 
 3998  4004     1 
 3998  4019     1 
 3999  4005     1 
 3999  4020     1 
 3999  4021     1 
 3999  4024     1 
 4000  4003     1 
 4000  4004     1 
 4000  4019     1 
 4001  4003     1 
 4001  4004     1 
 4001  4019     1 
 4002  4006     1 
 4002  4007     1 
 4002  4022     1 
 4002  4023     1 
 4002  4025     1 
 4003  4005     1 
 4003  4020     1 
 4003  4021     1 
 4003  4024     1 
 4004  4008     1 
 4004  4017     1 
 4004  4020     1 
 4004  4022     1 
 4004  4023     1 
 4004  4024     1 
 4005  4009     1 
 4005  4010     1 
 4005  4016     1 
 4005  4018     1 
 4005  4020     1 
 4005  4024     1 
 4006  4008     1 
 4006  4017     1 
 4006  4019     1 
 4006  4022     1 
 4006  4023     1 
 4007  4011     1 
 4007  4012     1 
 4007  4019     1 
 4007  4022     1 
 4007  4023     1 
 4008  4013     1 
 4008  4016     1 
 4008  4018     1 
 4008  4021     1 
 4009  4011     1 
 4009  4012     1 
 4009  4017     1 
 4010  4014     1 
 4010  4015     1 
 4010  4017     1 
 4011  4013     1 
 4011  4016     1 
 4012  4018     1 
 4013  4017     1 
 4014  4016     1 
 4015  4016     1 
 4017  4021     1 
 4019  4026     1 
 4019  4027     1 
 4019  4028     1 
 4020  4022     1 
 4020  4023     1 
 4020  4025     1 
 4021  4025     1 
 4022  4024     1 
 4023  4024     1 
 4024  4029     1 
 4025  4030     1 
 4025  4031     1 
 4025  4032     1 
 4026  4029     1 
 4027  4029     1 
 4028  4033     1 
 4028  4034     1 
 4028  4049     1 
 4029  4035     1 
 4029  4050     1 
 4029  4051     1 
 4029  4054     1 
 4030  4033     1 
 4030  4034     1 
 4030  4049     1 
 4031  4033     1 
 4031  4034     1 
 4031  4049     1 
 4032  4036     1 
 4032  4037     1 
 4032  4052     1 
 4032  4053     1 
 4032  4055     1 
 4033  4035     1 
 4033  4050     1 
 4033  4051     1 
 4033  4054     1 
 4034  4038     1 
 4034  4047     1 
 4034  4050     1 
 4034  4052     1 
 4034  4053     1 
 4034  4054     1 
 4035  4039     1 
 4035  4040     1 
 4035  4046     1 
 4035  4048     1 
 4035  4050     1 
 4035  4054     1 
 4036  4038     1 
 4036  4047     1 
 4036  4049     1 
 4036  4052     1 
 4036  4053     1 
 4037  4041     1 
 4037  4042     1 
 4037  4049     1 
 4037  4052     1 
 4037  4053     1 
 4038  4043     1 
 4038  4046     1 
 4038  4048     1 
 4038  4051     1 
 4039  4041     1 
 4039  4042     1 
 4039  4047     1 
 4040  4044     1 
 4040  4045     1 
 4040  4047     1 
 4041  4043     1 
 4041  4046     1 
 4042  4048     1 
 4043  4047     1 
 4044  4046     1 
 4045  4046     1 
 4047  4051     1 
 4049  4056     1 
 4049  4057     1 
 4049  4058     1 
 4050  4052     1 
 4050  4053     1 
 4050  4055     1 
 4051  4055     1 
 4052  4054     1 
 4053  4054     1 
 4054  4059     1 
 4055  4060     1 
 4055  4061     1 
 4055  4062     1 
 4056  4059     1 
 4057  4059     1 
 4058  4063     1 
 4058  4064     1 
 4058  4081     1 
 4059  4065     1 
 4059  4082     1 
 4059  4083     1 
 4059  4086     1 
 4060  4063     1 
 4060  4064     1 
 4060  4081     1 
 4061  4063     1 
 4061  4064     1 
 4061  4081     1 
 4062  4066     1 
 4062  4067     1 
 4062  4084     1 
 4062  4085     1 
 4062  4087     1 
 4063  4065     1 
 4063  4082     1 
 4063  4083     1 
 4063  4086     1 
 4064  4068     1 
 4064  4079     1 
 4064  4082     1 
 4064  4084     1 
 4064  4085     1 
 4064  4086     1 
 4065  4069     1 
 4065  4070     1 
 4065  4077     1 
 4065  4080     1 
 4065  4082     1 
 4065  4086     1 
 4066  4068     1 
 4066  4079     1 
 4066  4081     1 
 4066  4084     1 
 4066  4085     1 
 4067  4071     1 
 4067  4075     1 
 4067  4078     1 
 4067  4081     1 
 4067  4084     1 
 4067  4085     1 
 4068  4072     1 
 4068  4073     1 
 4068  4074     1 
 4068  4076     1 
 4068  4077     1 
 4068  4080     1 
 4068  4083     1 
 4069  4071     1 
 4069  4075     1 
 4069  4079     1 
 4070  4078     1 
 4070  4079     1 
 4071  4076     1 
 4071  4077     1 
 4072  4075     1 
 4073  4075     1 
 4074  4075     1 
 4075  4080     1 
 4076  4078     1 
 4076  4079     1 
 4078  4080     1 
 4079  4083     1 
 4081  4088     1 
 4081  4089     1 
 4081  4090     1 
 4082  4084     1 
 4082  4085     1 
 4082  4087     1 
 4083  4087     1 
 4084  4086     1 
 4085  4086     1 
 4086  4091     1 
 4087  4092     1 
 4087  4093     1 
 4087  4094     1 
 4088  4091     1 
 4089  4091     1 
 4090  4095     1 
 4090  4096     1 
 4090  4114     1 
 4091  4097     1 
 4091  4115     1 
 4091  4116     1 
 4091  4119     1 
 4092  4095     1 
 4092  4096     1 
 4092  4114     1 
 4093  4095     1 
 4093  4096     1 
 4093  4114     1 
 4094  4098     1 
 4094  4099     1 
 4094  4117     1 
 4094  4118     1 
 4094  4120     1 
 4095  4097     1 
 4095  4115     1 
 4095  4116     1 
 4095  4119     1 
 4096  4100     1 
 4096  4113     1 
 4096  4115     1 
 4096  4117     1 
 4096  4118     1 
 4096  4119     1 
 4097  4101     1 
 4097  4102     1 
 4097  4103     1 
 4097  4112     1 
 4097  4115     1 
 4097  4119     1 
 4098  4100     1 
 4098  4113     1 
 4098  4114     1 
 4098  4117     1 
 4098  4118     1 
 4099  4104     1 
 4099  4108     1 
 4099  4114     1 
 4099  4117     1 
 4099  4118     1 
 4100  4104     1 
 4100  4112     1 
 4100  4116     1 
 4101  4103     1 
 4101  4113     1 
 4102  4105     1 
 4102  4106     1 
 4102  4112     1 
 4103  4107     1 
 4103  4108     1 
 4104  4109     1 
 4104  4112     1 
 4105  4107     1 
 4105  4108     1 
 4105  4113     1 
 4106  4110     1 
 4106  4111     1 
 4106  4113     1 
 4107  4109     1 
 4107  4112     1 
 4109  4113     1 
 4110  4112     1 
 4111  4112     1 
 4113  4116     1 
 4114  4121     1 
 4114  4122     1 
 4114  4123     1 
 4115  4117     1 
 4115  4118     1 
 4115  4120     1 
 4116  4120     1 
 4117  4119     1 
 4118  4119     1 
 4119  4124     1 
 4120  4125     1 
 4120  4126     1 
 4120  4127     1 
 4121  4124     1 
 4122  4124     1 
 4123  4128     1 
 4123  4129     1 
 4123  4144     1 
 4124  4130     1 
 4124  4145     1 
 4124  4146     1 
 4124  4149     1 
 4125  4128     1 
 4125  4129     1 
 4125  4144     1 
 4126  4128     1 
 4126  4129     1 
 4126  4144     1 
 4127  4131     1 
 4127  4132     1 
 4127  4147     1 
 4127  4148     1 
 4127  4150     1 
 4128  4130     1 
 4128  4145     1 
 4128  4146     1 
 4128  4149     1 
 4129  4133     1 
 4129  4142     1 
 4129  4145     1 
 4129  4147     1 
 4129  4148     1 
 4129  4149     1 
 4130  4134     1 
 4130  4135     1 
 4130  4141     1 
 4130  4143     1 
 4130  4145     1 
 4130  4149     1 
 4131  4133     1 
 4131  4142     1 
 4131  4144     1 
 4131  4147     1 
 4131  4148     1 
 4132  4136     1 
 4132  4137     1 
 4132  4144     1 
 4132  4147     1 
 4132  4148     1 
 4133  4138     1 
 4133  4141     1 
 4133  4143     1 
 4133  4146     1 
 4134  4136     1 
 4134  4137     1 
 4134  4142     1 
 4135  4139     1 
 4135  4140     1 
 4135  4142     1 
 4136  4138     1 
 4136  4141     1 
 4137  4143     1 
 4138  4142     1 
 4139  4141     1 
 4140  4141     1 
 4142  4146     1 
 4144  4151     1 
 4144  4152     1 
 4144  4153     1 
 4145  4147     1 
 4145  4148     1 
 4145  4150     1 
 4146  4150     1 
 4147  4149     1 
 4148  4149     1 
 4149  4154     1 
 4150  4155     1 
 4150  4156     1 
 4150  4157     1 
 4151  4154     1 
 4152  4154     1 
 4153  4158     1 
 4153  4159     1 
 4153  4174     1 
 4154  4160     1 
 4154  4175     1 
 4154  4176     1 
 4154  4179     1 
 4155  4158     1 
 4155  4159     1 
 4155  4174     1 
 4156  4158     1 
 4156  4159     1 
 4156  4174     1 
 4157  4161     1 
 4157  4162     1 
 4157  4177     1 
 4157  4178     1 
 4157  4180     1 
 4158  4160     1 
 4158  4175     1 
 4158  4176     1 
 4158  4179     1 
 4159  4163     1 
 4159  4172     1 
 4159  4175     1 
 4159  4177     1 
 4159  4178     1 
 4159  4179     1 
 4160  4164     1 
 4160  4165     1 
 4160  4171     1 
 4160  4173     1 
 4160  4175     1 
 4160  4179     1 
 4161  4163     1 
 4161  4172     1 
 4161  4174     1 
 4161  4177     1 
 4161  4178     1 
 4162  4166     1 
 4162  4167     1 
 4162  4174     1 
 4162  4177     1 
 4162  4178     1 
 4163  4168     1 
 4163  4171     1 
 4163  4173     1 
 4163  4176     1 
 4164  4166     1 
 4164  4167     1 
 4164  4172     1 
 4165  4169     1 
 4165  4170     1 
 4165  4172     1 
 4166  4168     1 
 4166  4171     1 
 4167  4173     1 
 4168  4172     1 
 4169  4171     1 
 4170  4171     1 
 4172  4176     1 
 4174  4181     1 
 4174  4182     1 
 4174  4183     1 
 4175  4177     1 
 4175  4178     1 
 4175  4180     1 
 4176  4180     1 
 4177  4179     1 
 4178  4179     1 
 4179  4184     1 
 4180  4185     1 
 4180  4186     1 
 4180  4187     1 
 4181  4184     1 
 4182  4184     1 
 4183  4188     1 
 4183  4189     1 
 4183  4204     1 
 4184  4190     1 
 4184  4205     1 
 4184  4206     1 
 4184  4209     1 
 4185  4188     1 
 4185  4189     1 
 4185  4204     1 
 4186  4188     1 
 4186  4189     1 
 4186  4204     1 
 4187  4191     1 
 4187  4192     1 
 4187  4207     1 
 4187  4208     1 
 4187  4210     1 
 4188  4190     1 
 4188  4205     1 
 4188  4206     1 
 4188  4209     1 
 4189  4193     1 
 4189  4202     1 
 4189  4205     1 
 4189  4207     1 
 4189  4208     1 
 4189  4209     1 
 4190  4194     1 
 4190  4195     1 
 4190  4201     1 
 4190  4203     1 
 4190  4205     1 
 4190  4209     1 
 4191  4193     1 
 4191  4202     1 
 4191  4204     1 
 4191  4207     1 
 4191  4208     1 
 4192  4196     1 
 4192  4197     1 
 4192  4204     1 
 4192  4207     1 
 4192  4208     1 
 4193  4198     1 
 4193  4201     1 
 4193  4203     1 
 4193  4206     1 
 4194  4196     1 
 4194  4197     1 
 4194  4202     1 
 4195  4199     1 
 4195  4200     1 
 4195  4202     1 
 4196  4198     1 
 4196  4201     1 
 4197  4203     1 
 4198  4202     1 
 4199  4201     1 
 4200  4201     1 
 4202  4206     1 
 4204  4211     1 
 4204  4212     1 
 4204  4213     1 
 4205  4207     1 
 4205  4208     1 
 4205  4210     1 
 4206  4210     1 
 4207  4209     1 
 4208  4209     1 
 4209  4214     1 
 4210  4215     1 
 4210  4216     1 
 4210  4217     1 
 4211  4214     1 
 4212  4214     1 
 4213  4218     1 
 4213  4219     1 
 4213  4237     1 
 4214  4220     1 
 4214  4238     1 
 4214  4239     1 
 4214  4242     1 
 4215  4218     1 
 4215  4219     1 
 4215  4237     1 
 4216  4218     1 
 4216  4219     1 
 4216  4237     1 
 4217  4221     1 
 4217  4222     1 
 4217  4240     1 
 4217  4241     1 
 4217  4243     1 
 4218  4220     1 
 4218  4238     1 
 4218  4239     1 
 4218  4242     1 
 4219  4223     1 
 4219  4236     1 
 4219  4238     1 
 4219  4240     1 
 4219  4241     1 
 4219  4242     1 
 4220  4224     1 
 4220  4225     1 
 4220  4226     1 
 4220  4235     1 
 4220  4238     1 
 4220  4242     1 
 4221  4223     1 
 4221  4236     1 
 4221  4237     1 
 4221  4240     1 
 4221  4241     1 
 4222  4227     1 
 4222  4231     1 
 4222  4237     1 
 4222  4240     1 
 4222  4241     1 
 4223  4227     1 
 4223  4235     1 
 4223  4239     1 
 4224  4226     1 
 4224  4236     1 
 4225  4228     1 
 4225  4229     1 
 4225  4235     1 
 4226  4230     1 
 4226  4231     1 
 4227  4232     1 
 4227  4235     1 
 4228  4230     1 
 4228  4231     1 
 4228  4236     1 
 4229  4233     1 
 4229  4234     1 
 4229  4236     1 
 4230  4232     1 
 4230  4235     1 
 4232  4236     1 
 4233  4235     1 
 4234  4235     1 
 4236  4239     1 
 4237  4244     1 
 4237  4245     1 
 4237  4246     1 
 4238  4240     1 
 4238  4241     1 
 4238  4243     1 
 4239  4243     1 
 4240  4242     1 
 4241  4242     1 
 4242  4247     1 
 4243  4248     1 
 4243  4249     1 
 4243  4250     1 
 4244  4247     1 
 4245  4247     1 
 4246  4251     1 
 4246  4252     1 
 4246  4270     1 
 4247  4253     1 
 4247  4271     1 
 4247  4272     1 
 4247  4275     1 
 4248  4251     1 
 4248  4252     1 
 4248  4270     1 
 4249  4251     1 
 4249  4252     1 
 4249  4270     1 
 4250  4254     1 
 4250  4255     1 
 4250  4273     1 
 4250  4274     1 
 4250  4276     1 
 4251  4253     1 
 4251  4271     1 
 4251  4272     1 
 4251  4275     1 
 4252  4256     1 
 4252  4269     1 
 4252  4271     1 
 4252  4273     1 
 4252  4274     1 
 4252  4275     1 
 4253  4257     1 
 4253  4258     1 
 4253  4259     1 
 4253  4268     1 
 4253  4271     1 
 4253  4275     1 
 4254  4256     1 
 4254  4269     1 
 4254  4270     1 
 4254  4273     1 
 4254  4274     1 
 4255  4260     1 
 4255  4264     1 
 4255  4270     1 
 4255  4273     1 
 4255  4274     1 
 4256  4260     1 
 4256  4268     1 
 4256  4272     1 
 4257  4259     1 
 4257  4269     1 
 4258  4261     1 
 4258  4262     1 
 4258  4268     1 
 4259  4263     1 
 4259  4264     1 
 4260  4265     1 
 4260  4268     1 
 4261  4263     1 
 4261  4264     1 
 4261  4269     1 
 4262  4266     1 
 4262  4267     1 
 4262  4269     1 
 4263  4265     1 
 4263  4268     1 
 4265  4269     1 
 4266  4268     1 
 4267  4268     1 
 4269  4272     1 
 4270  4277     1 
 4270  4278     1 
 4270  4279     1 
 4271  4273     1 
 4271  4274     1 
 4271  4276     1 
 4272  4276     1 
 4273  4275     1 
 4274  4275     1 
 4275  4280     1 
 4276  4281     1 
 4276  4282     1 
 4276  4283     1 
 4277  4280     1 
 4278  4280     1 
 4279  4284     1 
 4279  4285     1 
 4279  4303     1 
 4280  4286     1 
 4280  4304     1 
 4280  4305     1 
 4280  4308     1 
 4281  4284     1 
 4281  4285     1 
 4281  4303     1 
 4282  4284     1 
 4282  4285     1 
 4282  4303     1 
 4283  4287     1 
 4283  4288     1 
 4283  4306     1 
 4283  4307     1 
 4283  4309     1 
 4284  4286     1 
 4284  4304     1 
 4284  4305     1 
 4284  4308     1 
 4285  4289     1 
 4285  4302     1 
 4285  4304     1 
 4285  4306     1 
 4285  4307     1 
 4285  4308     1 
 4286  4290     1 
 4286  4291     1 
 4286  4292     1 
 4286  4301     1 
 4286  4304     1 
 4286  4308     1 
 4287  4289     1 
 4287  4302     1 
 4287  4303     1 
 4287  4306     1 
 4287  4307     1 
 4288  4293     1 
 4288  4297     1 
 4288  4303     1 
 4288  4306     1 
 4288  4307     1 
 4289  4293     1 
 4289  4301     1 
 4289  4305     1 
 4290  4292     1 
 4290  4302     1 
 4291  4294     1 
 4291  4295     1 
 4291  4301     1 
 4292  4296     1 
 4292  4297     1 
 4293  4298     1 
 4293  4301     1 
 4294  4296     1 
 4294  4297     1 
 4294  4302     1 
 4295  4299     1 
 4295  4300     1 
 4295  4302     1 
 4296  4298     1 
 4296  4301     1 
 4298  4302     1 
 4299  4301     1 
 4300  4301     1 
 4302  4305     1 
 4303  4310     1 
 4303  4311     1 
 4303  4312     1 
 4304  4306     1 
 4304  4307     1 
 4304  4309     1 
 4305  4309     1 
 4306  4308     1 
 4307  4308     1 
 4308  4313     1 
 4309  4314     1 
 4309  4315     1 
 4309  4316     1 
 4310  4313     1 
 4311  4313     1 
 4312  4317     1 
 4312  4318     1 
 4312  4335     1 
 4313  4319     1 
 4313  4336     1 
 4313  4337     1 
 4313  4340     1 
 4314  4317     1 
 4314  4318     1 
 4314  4335     1 
 4315  4317     1 
 4315  4318     1 
 4315  4335     1 
 4316  4320     1 
 4316  4321     1 
 4316  4338     1 
 4316  4339     1 
 4316  4341     1 
 4317  4319     1 
 4317  4336     1 
 4317  4337     1 
 4317  4340     1 
 4318  4322     1 
 4318  4333     1 
 4318  4336     1 
 4318  4338     1 
 4318  4339     1 
 4318  4340     1 
 4319  4323     1 
 4319  4324     1 
 4319  4331     1 
 4319  4334     1 
 4319  4336     1 
 4319  4340     1 
 4320  4322     1 
 4320  4333     1 
 4320  4335     1 
 4320  4338     1 
 4320  4339     1 
 4321  4325     1 
 4321  4329     1 
 4321  4332     1 
 4321  4335     1 
 4321  4338     1 
 4321  4339     1 
 4322  4326     1 
 4322  4327     1 
 4322  4328     1 
 4322  4330     1 
 4322  4331     1 
 4322  4334     1 
 4322  4337     1 
 4323  4325     1 
 4323  4329     1 
 4323  4333     1 
 4324  4332     1 
 4324  4333     1 
 4325  4330     1 
 4325  4331     1 
 4326  4329     1 
 4327  4329     1 
 4328  4329     1 
 4329  4334     1 
 4330  4332     1 
 4330  4333     1 
 4332  4334     1 
 4333  4337     1 
 4335  4342     1 
 4335  4343     1 
 4335  4344     1 
 4336  4338     1 
 4336  4339     1 
 4336  4341     1 
 4337  4341     1 
 4338  4340     1 
 4339  4340     1 
 4340  4345     1 
 4341  4346     1 
 4341  4347     1 
 4341  4348     1 
 4342  4345     1 
 4343  4345     1 
 4344  4349     1 
 4344  4350     1 
 4344  4365     1 
 4345  4351     1 
 4345  4366     1 
 4345  4367     1 
 4345  4370     1 
 4346  4349     1 
 4346  4350     1 
 4346  4365     1 
 4347  4349     1 
 4347  4350     1 
 4347  4365     1 
 4348  4352     1 
 4348  4353     1 
 4348  4368     1 
 4348  4369     1 
 4348  4371     1 
 4349  4351     1 
 4349  4366     1 
 4349  4367     1 
 4349  4370     1 
 4350  4354     1 
 4350  4363     1 
 4350  4366     1 
 4350  4368     1 
 4350  4369     1 
 4350  4370     1 
 4351  4355     1 
 4351  4356     1 
 4351  4362     1 
 4351  4364     1 
 4351  4366     1 
 4351  4370     1 
 4352  4354     1 
 4352  4363     1 
 4352  4365     1 
 4352  4368     1 
 4352  4369     1 
 4353  4357     1 
 4353  4358     1 
 4353  4365     1 
 4353  4368     1 
 4353  4369     1 
 4354  4359     1 
 4354  4362     1 
 4354  4364     1 
 4354  4367     1 
 4355  4357     1 
 4355  4358     1 
 4355  4363     1 
 4356  4360     1 
 4356  4361     1 
 4356  4363     1 
 4357  4359     1 
 4357  4362     1 
 4358  4364     1 
 4359  4363     1 
 4360  4362     1 
 4361  4362     1 
 4363  4367     1 
 4365  4372     1 
 4365  4373     1 
 4365  4374     1 
 4366  4368     1 
 4366  4369     1 
 4366  4371     1 
 4367  4371     1 
 4368  4370     1 
 4369  4370     1 
 4370  4375     1 
 4371  4376     1 
 4371  4377     1 
 4371  4378     1 
 4372  4375     1 
 4373  4375     1 
 4374  4379     1 
 4374  4380     1 
 4374  4395     1 
 4375  4381     1 
 4375  4396     1 
 4375  4397     1 
 4375  4400     1 
 4376  4379     1 
 4376  4380     1 
 4376  4395     1 
 4377  4379     1 
 4377  4380     1 
 4377  4395     1 
 4378  4382     1 
 4378  4383     1 
 4378  4398     1 
 4378  4399     1 
 4378  4401     1 
 4379  4381     1 
 4379  4396     1 
 4379  4397     1 
 4379  4400     1 
 4380  4384     1 
 4380  4393     1 
 4380  4396     1 
 4380  4398     1 
 4380  4399     1 
 4380  4400     1 
 4381  4385     1 
 4381  4386     1 
 4381  4392     1 
 4381  4394     1 
 4381  4396     1 
 4381  4400     1 
 4382  4384     1 
 4382  4393     1 
 4382  4395     1 
 4382  4398     1 
 4382  4399     1 
 4383  4387     1 
 4383  4388     1 
 4383  4395     1 
 4383  4398     1 
 4383  4399     1 
 4384  4389     1 
 4384  4392     1 
 4384  4394     1 
 4384  4397     1 
 4385  4387     1 
 4385  4388     1 
 4385  4393     1 
 4386  4390     1 
 4386  4391     1 
 4386  4393     1 
 4387  4389     1 
 4387  4392     1 
 4388  4394     1 
 4389  4393     1 
 4390  4392     1 
 4391  4392     1 
 4393  4397     1 
 4395  4402     1 
 4395  4403     1 
 4395  4404     1 
 4396  4398     1 
 4396  4399     1 
 4396  4401     1 
 4397  4401     1 
 4398  4400     1 
 4399  4400     1 
 4400  4405     1 
 4401  4406     1 
 4401  4407     1 
 4401  4408     1 
 4402  4405     1 
 4403  4405     1 
 4404  4409     1 
 4404  4410     1 
 4404  4425     1 
 4405  4411     1 
 4405  4426     1 
 4405  4427     1 
 4405  4430     1 
 4406  4409     1 
 4406  4410     1 
 4406  4425     1 
 4407  4409     1 
 4407  4410     1 
 4407  4425     1 
 4408  4412     1 
 4408  4413     1 
 4408  4428     1 
 4408  4429     1 
 4408  4431     1 
 4409  4411     1 
 4409  4426     1 
 4409  4427     1 
 4409  4430     1 
 4410  4414     1 
 4410  4423     1 
 4410  4426     1 
 4410  4428     1 
 4410  4429     1 
 4410  4430     1 
 4411  4415     1 
 4411  4416     1 
 4411  4422     1 
 4411  4424     1 
 4411  4426     1 
 4411  4430     1 
 4412  4414     1 
 4412  4423     1 
 4412  4425     1 
 4412  4428     1 
 4412  4429     1 
 4413  4417     1 
 4413  4418     1 
 4413  4425     1 
 4413  4428     1 
 4413  4429     1 
 4414  4419     1 
 4414  4422     1 
 4414  4424     1 
 4414  4427     1 
 4415  4417     1 
 4415  4418     1 
 4415  4423     1 
 4416  4420     1 
 4416  4421     1 
 4416  4423     1 
 4417  4419     1 
 4417  4422     1 
 4418  4424     1 
 4419  4423     1 
 4420  4422     1 
 4421  4422     1 
 4423  4427     1 
 4425  4432     1 
 4425  4433     1 
 4425  4434     1 
 4426  4428     1 
 4426  4429     1 
 4426  4431     1 
 4427  4431     1 
 4428  4430     1 
 4429  4430     1 
 4430  4435     1 
 4431  4436     1 
 4431  4437     1 
 4431  4438     1 
 4432  4435     1 
 4433  4435     1 
 4434  4439     1 
 4434  4440     1 
 4434  4458     1 
 4435  4441     1 
 4435  4459     1 
 4435  4460     1 
 4435  4463     1 
 4436  4439     1 
 4436  4440     1 
 4436  4458     1 
 4437  4439     1 
 4437  4440     1 
 4437  4458     1 
 4438  4442     1 
 4438  4443     1 
 4438  4461     1 
 4438  4462     1 
 4438  4464     1 
 4439  4441     1 
 4439  4459     1 
 4439  4460     1 
 4439  4463     1 
 4440  4444     1 
 4440  4457     1 
 4440  4459     1 
 4440  4461     1 
 4440  4462     1 
 4440  4463     1 
 4441  4445     1 
 4441  4446     1 
 4441  4447     1 
 4441  4456     1 
 4441  4459     1 
 4441  4463     1 
 4442  4444     1 
 4442  4457     1 
 4442  4458     1 
 4442  4461     1 
 4442  4462     1 
 4443  4448     1 
 4443  4452     1 
 4443  4458     1 
 4443  4461     1 
 4443  4462     1 
 4444  4448     1 
 4444  4456     1 
 4444  4460     1 
 4445  4447     1 
 4445  4457     1 
 4446  4449     1 
 4446  4450     1 
 4446  4456     1 
 4447  4451     1 
 4447  4452     1 
 4448  4453     1 
 4448  4456     1 
 4449  4451     1 
 4449  4452     1 
 4449  4457     1 
 4450  4454     1 
 4450  4455     1 
 4450  4457     1 
 4451  4453     1 
 4451  4456     1 
 4453  4457     1 
 4454  4456     1 
 4455  4456     1 
 4457  4460     1 
 4458  4465     1 
 4458  4466     1 
 4458  4467     1 
 4459  4461     1 
 4459  4462     1 
 4459  4464     1 
 4460  4464     1 
 4461  4463     1 
 4462  4463     1 
 4463  4468     1 
 4464  4469     1 
 4464  4470     1 
 4464  4471     1 
 4465  4468     1 
 4466  4468     1 
 4467  4472     1 
 4467  4473     1 
 4467  4490     1 
 4468  4474     1 
 4468  4491     1 
 4468  4492     1 
 4468  4495     1 
 4469  4472     1 
 4469  4473     1 
 4469  4490     1 
 4470  4472     1 
 4470  4473     1 
 4470  4490     1 
 4471  4475     1 
 4471  4476     1 
 4471  4493     1 
 4471  4494     1 
 4471  4496     1 
 4472  4474     1 
 4472  4491     1 
 4472  4492     1 
 4472  4495     1 
 4473  4477     1 
 4473  4489     1 
 4473  4491     1 
 4473  4493     1 
 4473  4494     1 
 4473  4495     1 
 4474  4478     1 
 4474  4479     1 
 4474  4480     1 
 4474  4488     1 
 4474  4491     1 
 4474  4495     1 
 4475  4477     1 
 4475  4489     1 
 4475  4490     1 
 4475  4493     1 
 4475  4494     1 
 4476  4481     1 
 4476  4486     1 
 4476  4490     1 
 4476  4493     1 
 4476  4494     1 
 4477  4481     1 
 4477  4488     1 
 4477  4492     1 
 4478  4480     1 
 4478  4489     1 
 4479  4482     1 
 4479  4485     1 
 4479  4488     1 
 4480  4483     1 
 4480  4484     1 
 4480  4486     1 
 4481  4487     1 
 4481  4488     1 
 4482  4486     1 
 4482  4489     1 
 4483  4485     1 
 4484  4485     1 
 4485  4489     1 
 4487  4489     1 
 4489  4492     1 
 4490  4497     1 
 4490  4498     1 
 4490  4499     1 
 4491  4493     1 
 4491  4494     1 
 4491  4496     1 
 4492  4496     1 
 4493  4495     1 
 4494  4495     1 
 4495  4500     1 
 4496  4501     1 
 4496  4502     1 
 4496  4503     1 
 4497  4500     1 
 4498  4500     1 
 4499  4504     1 
 4499  4505     1 
 4499  4520     1 
 4500  4506     1 
 4500  4521     1 
 4500  4522     1 
 4500  4525     1 
 4501  4504     1 
 4501  4505     1 
 4501  4520     1 
 4502  4504     1 
 4502  4505     1 
 4502  4520     1 
 4503  4507     1 
 4503  4508     1 
 4503  4523     1 
 4503  4524     1 
 4503  4526     1 
 4504  4506     1 
 4504  4521     1 
 4504  4522     1 
 4504  4525     1 
 4505  4509     1 
 4505  4518     1 
 4505  4521     1 
 4505  4523     1 
 4505  4524     1 
 4505  4525     1 
 4506  4510     1 
 4506  4511     1 
 4506  4517     1 
 4506  4519     1 
 4506  4521     1 
 4506  4525     1 
 4507  4509     1 
 4507  4518     1 
 4507  4520     1 
 4507  4523     1 
 4507  4524     1 
 4508  4512     1 
 4508  4513     1 
 4508  4520     1 
 4508  4523     1 
 4508  4524     1 
 4509  4514     1 
 4509  4517     1 
 4509  4519     1 
 4509  4522     1 
 4510  4512     1 
 4510  4513     1 
 4510  4518     1 
 4511  4515     1 
 4511  4516     1 
 4511  4518     1 
 4512  4514     1 
 4512  4517     1 
 4513  4519     1 
 4514  4518     1 
 4515  4517     1 
 4516  4517     1 
 4518  4522     1 
 4520  4527     1 
 4520  4528     1 
 4520  4529     1 
 4521  4523     1 
 4521  4524     1 
 4521  4526     1 
 4522  4526     1 
 4523  4525     1 
 4524  4525     1 
 4525  4530     1 
 4526  4531     1 
 4526  4532     1 
 4526  4533     1 
 4527  4530     1 
 4528  4530     1 
 4529  4534     1 
 4529  4535     1 
 4529  4550     1 
 4530  4536     1 
 4530  4551     1 
 4530  4552     1 
 4530  4555     1 
 4531  4534     1 
 4531  4535     1 
 4531  4550     1 
 4532  4534     1 
 4532  4535     1 
 4532  4550     1 
 4533  4537     1 
 4533  4538     1 
 4533  4553     1 
 4533  4554     1 
 4533  4556     1 
 4534  4536     1 
 4534  4551     1 
 4534  4552     1 
 4534  4555     1 
 4535  4539     1 
 4535  4548     1 
 4535  4551     1 
 4535  4553     1 
 4535  4554     1 
 4535  4555     1 
 4536  4540     1 
 4536  4541     1 
 4536  4547     1 
 4536  4549     1 
 4536  4551     1 
 4536  4555     1 
 4537  4539     1 
 4537  4548     1 
 4537  4550     1 
 4537  4553     1 
 4537  4554     1 
 4538  4542     1 
 4538  4543     1 
 4538  4550     1 
 4538  4553     1 
 4538  4554     1 
 4539  4544     1 
 4539  4547     1 
 4539  4549     1 
 4539  4552     1 
 4540  4542     1 
 4540  4543     1 
 4540  4548     1 
 4541  4545     1 
 4541  4546     1 
 4541  4548     1 
 4542  4544     1 
 4542  4547     1 
 4543  4549     1 
 4544  4548     1 
 4545  4547     1 
 4546  4547     1 
 4548  4552     1 
 4550  4557     1 
 4550  4558     1 
 4550  4559     1 
 4551  4553     1 
 4551  4554     1 
 4551  4556     1 
 4552  4556     1 
 4553  4555     1 
 4554  4555     1 
 4555  4560     1 
 4556  4561     1 
 4556  4562     1 
 4556  4563     1 
 4557  4560     1 
 4558  4560     1 
 4559  4564     1 
 4559  4565     1 
 4559  4580     1 
 4560  4566     1 
 4560  4581     1 
 4560  4582     1 
 4560  4585     1 
 4561  4564     1 
 4561  4565     1 
 4561  4580     1 
 4562  4564     1 
 4562  4565     1 
 4562  4580     1 
 4563  4567     1 
 4563  4568     1 
 4563  4583     1 
 4563  4584     1 
 4563  4586     1 
 4564  4566     1 
 4564  4581     1 
 4564  4582     1 
 4564  4585     1 
 4565  4569     1 
 4565  4578     1 
 4565  4581     1 
 4565  4583     1 
 4565  4584     1 
 4565  4585     1 
 4566  4570     1 
 4566  4571     1 
 4566  4577     1 
 4566  4579     1 
 4566  4581     1 
 4566  4585     1 
 4567  4569     1 
 4567  4578     1 
 4567  4580     1 
 4567  4583     1 
 4567  4584     1 
 4568  4572     1 
 4568  4573     1 
 4568  4580     1 
 4568  4583     1 
 4568  4584     1 
 4569  4574     1 
 4569  4577     1 
 4569  4579     1 
 4569  4582     1 
 4570  4572     1 
 4570  4573     1 
 4570  4578     1 
 4571  4575     1 
 4571  4576     1 
 4571  4578     1 
 4572  4574     1 
 4572  4577     1 
 4573  4579     1 
 4574  4578     1 
 4575  4577     1 
 4576  4577     1 
 4578  4582     1 
 4580  4587     1 
 4580  4588     1 
 4580  4589     1 
 4581  4583     1 
 4581  4584     1 
 4581  4586     1 
 4582  4586     1 
 4583  4585     1 
 4584  4585     1 
 4585  4590     1 
 4586  4591     1 
 4586  4592     1 
 4586  4593     1 
 4587  4590     1 
 4588  4590     1 
 4589  4594     1 
 4589  4595     1 
 4589  4612     1 
 4590  4596     1 
 4590  4613     1 
 4590  4614     1 
 4590  4617     1 
 4591  4594     1 
 4591  4595     1 
 4591  4612     1 
 4592  4594     1 
 4592  4595     1 
 4592  4612     1 
 4593  4597     1 
 4593  4598     1 
 4593  4615     1 
 4593  4616     1 
 4593  4618     1 
 4594  4596     1 
 4594  4613     1 
 4594  4614     1 
 4594  4617     1 
 4595  4599     1 
 4595  4610     1 
 4595  4613     1 
 4595  4615     1 
 4595  4616     1 
 4595  4617     1 
 4596  4600     1 
 4596  4601     1 
 4596  4608     1 
 4596  4611     1 
 4596  4613     1 
 4596  4617     1 
 4597  4599     1 
 4597  4610     1 
 4597  4612     1 
 4597  4615     1 
 4597  4616     1 
 4598  4602     1 
 4598  4606     1 
 4598  4609     1 
 4598  4612     1 
 4598  4615     1 
 4598  4616     1 
 4599  4603     1 
 4599  4604     1 
 4599  4605     1 
 4599  4607     1 
 4599  4608     1 
 4599  4611     1 
 4599  4614     1 
 4600  4602     1 
 4600  4606     1 
 4600  4610     1 
 4601  4609     1 
 4601  4610     1 
 4602  4607     1 
 4602  4608     1 
 4603  4606     1 
 4604  4606     1 
 4605  4606     1 
 4606  4611     1 
 4607  4609     1 
 4607  4610     1 
 4609  4611     1 
 4610  4614     1 
 4613  4615     1 
 4613  4616     1 
 4613  4618     1 
 4614  4618     1 
 4615  4617     1 
 4616  4617     1 

[ angles ]
;  ai    aj    ak funct            c0            c1            c2            c3
    2     1     3     1 
    1     3     4     1 
    1     3     5     1 
    1     3     6     1 
    4     3     5     1 
    4     3     6     1 
    5     3     6     1 
    3     6     7     1 
    3     6     8     1 
    3     6    23     1 
    7     6     8     1 
    7     6    23     1 
    8     6    23     1 
    6     8     9     1 
    8     9    10     1 
    8     9    11     1 
    8     9    25     1 
   10     9    11     1 
   10     9    25     1 
   11     9    25     1 
    9    11    12     1 
    9    11    21     1 
   12    11    21     1 
   11    12    13     1 
   11    12    14     1 
   13    12    14     1 
   12    14    15     1 
   12    14    16     1 
   15    14    16     1 
   14    16    17     1 
   14    16    20     1 
   17    16    20     1 
   16    17    18     1 
   16    17    19     1 
   18    17    19     1 
   16    20    21     1 
   11    21    20     1 
   11    21    22     1 
   20    21    22     1 
    6    23    24     1 
    6    23    25     1 
    6    23    28     1 
   24    23    25     1 
   24    23    28     1 
   25    23    28     1 
    9    25    23     1 
    9    25    26     1 
    9    25    27     1 
   23    25    26     1 
   23    25    27     1 
   26    25    27     1 
   23    28    29     1 
   28    29    30     1 
   28    29    31     1 
   28    29    32     1 
   30    29    31     1 
   30    29    32     1 
   31    29    32     1 
   29    32    33     1 
   32    33    34     1 
   32    33    35     1 
   32    33    36     1 
   34    33    35     1 
   34    33    36     1 
   35    33    36     1 
   33    36    37     1 
   33    36    38     1 
   33    36    53     1 
   37    36    38     1 
   37    36    53     1 
   38    36    53     1 
   36    38    39     1 
   38    39    40     1 
   38    39    41     1 
   38    39    55     1 
   40    39    41     1 
   40    39    55     1 
   41    39    55     1 
   39    41    42     1 
   39    41    51     1 
   42    41    51     1 
   41    42    43     1 
   41    42    44     1 
   43    42    44     1 
   42    44    45     1 
   42    44    46     1 
   45    44    46     1 
   44    46    47     1 
   44    46    50     1 
   47    46    50     1 
   46    47    48     1 
   46    47    49     1 
   48    47    49     1 
   46    50    51     1 
   41    51    50     1 
   41    51    52     1 
   50    51    52     1 
   36    53    54     1 
   36    53    55     1 
   36    53    58     1 
   54    53    55     1 
   54    53    58     1 
   55    53    58     1 
   39    55    53     1 
   39    55    56     1 
   39    55    57     1 
   53    55    56     1 
   53    55    57     1 
   56    55    57     1 
   53    58    59     1 
   58    59    60     1 
   58    59    61     1 
   58    59    62     1 
   60    59    61     1 
   60    59    62     1 
   61    59    62     1 
   59    62    63     1 
   62    63    64     1 
   62    63    65     1 
   62    63    66     1 
   64    63    65     1 
   64    63    66     1 
   65    63    66     1 
   63    66    67     1 
   63    66    68     1 
   63    66    83     1 
   67    66    68     1 
   67    66    83     1 
   68    66    83     1 
   66    68    69     1 
   68    69    70     1 
   68    69    71     1 
   68    69    85     1 
   70    69    71     1 
   70    69    85     1 
   71    69    85     1 
   69    71    72     1 
   69    71    81     1 
   72    71    81     1 
   71    72    73     1 
   71    72    74     1 
   73    72    74     1 
   72    74    75     1 
   72    74    76     1 
   75    74    76     1 
   74    76    77     1 
   74    76    80     1 
   77    76    80     1 
   76    77    78     1 
   76    77    79     1 
   78    77    79     1 
   76    80    81     1 
   71    81    80     1 
   71    81    82     1 
   80    81    82     1 
   66    83    84     1 
   66    83    85     1 
   66    83    88     1 
   84    83    85     1 
   84    83    88     1 
   85    83    88     1 
   69    85    83     1 
   69    85    86     1 
   69    85    87     1 
   83    85    86     1 
   83    85    87     1 
   86    85    87     1 
   83    88    89     1 
   88    89    90     1 
   88    89    91     1 
   88    89    92     1 
   90    89    91     1 
   90    89    92     1 
   91    89    92     1 
   89    92    93     1 
   92    93    94     1 
   92    93    95     1 
   92    93    96     1 
   94    93    95     1 
   94    93    96     1 
   95    93    96     1 
   93    96    97     1 
   93    96    98     1 
   93    96   116     1 
   97    96    98     1 
   97    96   116     1 
   98    96   116     1 
   96    98    99     1 
   98    99   100     1 
   98    99   101     1 
   98    99   118     1 
  100    99   101     1 
  100    99   118     1 
  101    99   118     1 
   99   101   102     1 
   99   101   115     1 
  102   101   115     1 
  101   102   103     1 
  101   102   104     1 
  103   102   104     1 
  102   104   105     1 
  104   105   106     1 
  104   105   115     1 
  106   105   115     1 
  105   106   107     1 
  105   106   108     1 
  107   106   108     1 
  106   108   109     1 
  106   108   110     1 
  109   108   110     1 
  108   110   111     1 
  108   110   114     1 
  111   110   114     1 
  110   111   112     1 
  110   111   113     1 
  112   111   113     1 
  110   114   115     1 
  101   115   105     1 
  101   115   114     1 
  105   115   114     1 
   96   116   117     1 
   96   116   118     1 
   96   116   121     1 
  117   116   118     1 
  117   116   121     1 
  118   116   121     1 
   99   118   116     1 
   99   118   119     1 
   99   118   120     1 
  116   118   119     1 
  116   118   120     1 
  119   118   120     1 
  116   121   122     1 
  121   122   123     1 
  121   122   124     1 
  121   122   125     1 
  123   122   124     1 
  123   122   125     1 
  124   122   125     1 
  122   125   126     1 
  125   126   127     1 
  125   126   128     1 
  125   126   129     1 
  127   126   128     1 
  127   126   129     1 
  128   126   129     1 
  126   129   130     1 
  126   129   131     1 
  126   129   149     1 
  130   129   131     1 
  130   129   149     1 
  131   129   149     1 
  129   131   132     1 
  131   132   133     1 
  131   132   134     1 
  131   132   151     1 
  133   132   134     1 
  133   132   151     1 
  134   132   151     1 
  132   134   135     1 
  132   134   148     1 
  135   134   148     1 
  134   135   136     1 
  134   135   137     1 
  136   135   137     1 
  135   137   138     1 
  137   138   139     1 
  137   138   148     1 
  139   138   148     1 
  138   139   140     1 
  138   139   141     1 
  140   139   141     1 
  139   141   142     1 
  139   141   143     1 
  142   141   143     1 
  141   143   144     1 
  141   143   147     1 
  144   143   147     1 
  143   144   145     1 
  143   144   146     1 
  145   144   146     1 
  143   147   148     1 
  134   148   138     1 
  134   148   147     1 
  138   148   147     1 
  129   149   150     1 
  129   149   151     1 
  129   149   154     1 
  150   149   151     1 
  150   149   154     1 
  151   149   154     1 
  132   151   149     1 
  132   151   152     1 
  132   151   153     1 
  149   151   152     1 
  149   151   153     1 
  152   151   153     1 
  149   154   155     1 
  154   155   156     1 
  154   155   157     1 
  154   155   158     1 
  156   155   157     1 
  156   155   158     1 
  157   155   158     1 
  155   158   159     1 
  158   159   160     1 
  158   159   161     1 
  158   159   162     1 
  160   159   161     1 
  160   159   162     1 
  161   159   162     1 
  159   162   163     1 
  159   162   164     1 
  159   162   179     1 
  163   162   164     1 
  163   162   179     1 
  164   162   179     1 
  162   164   165     1 
  164   165   166     1 
  164   165   167     1 
  164   165   181     1 
  166   165   167     1 
  166   165   181     1 
  167   165   181     1 
  165   167   168     1 
  165   167   177     1 
  168   167   177     1 
  167   168   169     1 
  167   168   170     1 
  169   168   170     1 
  168   170   171     1 
  168   170   172     1 
  171   170   172     1 
  170   172   173     1 
  170   172   176     1 
  173   172   176     1 
  172   173   174     1 
  172   173   175     1 
  174   173   175     1 
  172   176   177     1 
  167   177   176     1 
  167   177   178     1 
  176   177   178     1 
  162   179   180     1 
  162   179   181     1 
  162   179   184     1 
  180   179   181     1 
  180   179   184     1 
  181   179   184     1 
  165   181   179     1 
  165   181   182     1 
  165   181   183     1 
  179   181   182     1 
  179   181   183     1 
  182   181   183     1 
  179   184   185     1 
  184   185   186     1 
  184   185   187     1 
  184   185   188     1 
  186   185   187     1 
  186   185   188     1 
  187   185   188     1 
  185   188   189     1 
  188   189   190     1 
  188   189   191     1 
  188   189   192     1 
  190   189   191     1 
  190   189   192     1 
  191   189   192     1 
  189   192   193     1 
  189   192   194     1 
  189   192   209     1 
  193   192   194     1 
  193   192   209     1 
  194   192   209     1 
  192   194   195     1 
  194   195   196     1 
  194   195   197     1 
  194   195   211     1 
  196   195   197     1 
  196   195   211     1 
  197   195   211     1 
  195   197   198     1 
  195   197   207     1 
  198   197   207     1 
  197   198   199     1 
  197   198   200     1 
  199   198   200     1 
  198   200   201     1 
  198   200   202     1 
  201   200   202     1 
  200   202   203     1 
  200   202   206     1 
  203   202   206     1 
  202   203   204     1 
  202   203   205     1 
  204   203   205     1 
  202   206   207     1 
  197   207   206     1 
  197   207   208     1 
  206   207   208     1 
  192   209   210     1 
  192   209   211     1 
  192   209   214     1 
  210   209   211     1 
  210   209   214     1 
  211   209   214     1 
  195   211   209     1 
  195   211   212     1 
  195   211   213     1 
  209   211   212     1 
  209   211   213     1 
  212   211   213     1 
  209   214   215     1 
  214   215   216     1 
  214   215   217     1 
  214   215   218     1 
  216   215   217     1 
  216   215   218     1 
  217   215   218     1 
  215   218   219     1 
  218   219   220     1 
  218   219   221     1 
  218   219   222     1 
  220   219   221     1 
  220   219   222     1 
  221   219   222     1 
  219   222   223     1 
  219   222   224     1 
  219   222   239     1 
  223   222   224     1 
  223   222   239     1 
  224   222   239     1 
  222   224   225     1 
  224   225   226     1 
  224   225   227     1 
  224   225   241     1 
  226   225   227     1 
  226   225   241     1 
  227   225   241     1 
  225   227   228     1 
  225   227   237     1 
  228   227   237     1 
  227   228   229     1 
  227   228   230     1 
  229   228   230     1 
  228   230   231     1 
  228   230   232     1 
  231   230   232     1 
  230   232   233     1 
  230   232   236     1 
  233   232   236     1 
  232   233   234     1 
  232   233   235     1 
  234   233   235     1 
  232   236   237     1 
  227   237   236     1 
  227   237   238     1 
  236   237   238     1 
  222   239   240     1 
  222   239   241     1 
  222   239   244     1 
  240   239   241     1 
  240   239   244     1 
  241   239   244     1 
  225   241   239     1 
  225   241   242     1 
  225   241   243     1 
  239   241   242     1 
  239   241   243     1 
  242   241   243     1 
  239   244   245     1 
  244   245   246     1 
  244   245   247     1 
  244   245   248     1 
  246   245   247     1 
  246   245   248     1 
  247   245   248     1 
  245   248   249     1 
  248   249   250     1 
  248   249   251     1 
  248   249   252     1 
  250   249   251     1 
  250   249   252     1 
  251   249   252     1 
  249   252   253     1 
  249   252   254     1 
  249   252   269     1 
  253   252   254     1 
  253   252   269     1 
  254   252   269     1 
  252   254   255     1 
  254   255   256     1 
  254   255   257     1 
  254   255   271     1 
  256   255   257     1 
  256   255   271     1 
  257   255   271     1 
  255   257   258     1 
  255   257   267     1 
  258   257   267     1 
  257   258   259     1 
  257   258   260     1 
  259   258   260     1 
  258   260   261     1 
  258   260   262     1 
  261   260   262     1 
  260   262   263     1 
  260   262   266     1 
  263   262   266     1 
  262   263   264     1 
  262   263   265     1 
  264   263   265     1 
  262   266   267     1 
  257   267   266     1 
  257   267   268     1 
  266   267   268     1 
  252   269   270     1 
  252   269   271     1 
  252   269   274     1 
  270   269   271     1 
  270   269   274     1 
  271   269   274     1 
  255   271   269     1 
  255   271   272     1 
  255   271   273     1 
  269   271   272     1 
  269   271   273     1 
  272   271   273     1 
  269   274   275     1 
  274   275   276     1 
  274   275   277     1 
  274   275   278     1 
  276   275   277     1 
  276   275   278     1 
  277   275   278     1 
  275   278   279     1 
  278   279   280     1 
  278   279   281     1 
  278   279   282     1 
  280   279   281     1 
  280   279   282     1 
  281   279   282     1 
  279   282   283     1 
  279   282   284     1 
  279   282   299     1 
  283   282   284     1 
  283   282   299     1 
  284   282   299     1 
  282   284   285     1 
  284   285   286     1 
  284   285   287     1 
  284   285   301     1 
  286   285   287     1 
  286   285   301     1 
  287   285   301     1 
  285   287   288     1 
  285   287   297     1 
  288   287   297     1 
  287   288   289     1 
  287   288   290     1 
  289   288   290     1 
  288   290   291     1 
  288   290   292     1 
  291   290   292     1 
  290   292   293     1 
  290   292   296     1 
  293   292   296     1 
  292   293   294     1 
  292   293   295     1 
  294   293   295     1 
  292   296   297     1 
  287   297   296     1 
  287   297   298     1 
  296   297   298     1 
  282   299   300     1 
  282   299   301     1 
  282   299   304     1 
  300   299   301     1 
  300   299   304     1 
  301   299   304     1 
  285   301   299     1 
  285   301   302     1 
  285   301   303     1 
  299   301   302     1 
  299   301   303     1 
  302   301   303     1 
  299   304   305     1 
  304   305   306     1 
  304   305   307     1 
  304   305   308     1 
  306   305   307     1 
  306   305   308     1 
  307   305   308     1 
  305   308   309     1 
  308   309   310     1 
  308   309   311     1 
  308   309   312     1 
  310   309   311     1 
  310   309   312     1 
  311   309   312     1 
  309   312   313     1 
  309   312   314     1 
  309   312   332     1 
  313   312   314     1 
  313   312   332     1 
  314   312   332     1 
  312   314   315     1 
  314   315   316     1 
  314   315   317     1 
  314   315   334     1 
  316   315   317     1 
  316   315   334     1 
  317   315   334     1 
  315   317   318     1 
  315   317   331     1 
  318   317   331     1 
  317   318   319     1 
  317   318   320     1 
  319   318   320     1 
  318   320   321     1 
  320   321   322     1 
  320   321   331     1 
  322   321   331     1 
  321   322   323     1 
  321   322   324     1 
  323   322   324     1 
  322   324   325     1 
  322   324   326     1 
  325   324   326     1 
  324   326   327     1 
  324   326   330     1 
  327   326   330     1 
  326   327   328     1 
  326   327   329     1 
  328   327   329     1 
  326   330   331     1 
  317   331   321     1 
  317   331   330     1 
  321   331   330     1 
  312   332   333     1 
  312   332   334     1 
  312   332   337     1 
  333   332   334     1 
  333   332   337     1 
  334   332   337     1 
  315   334   332     1 
  315   334   335     1 
  315   334   336     1 
  332   334   335     1 
  332   334   336     1 
  335   334   336     1 
  332   337   338     1 
  337   338   339     1 
  337   338   340     1 
  337   338   341     1 
  339   338   340     1 
  339   338   341     1 
  340   338   341     1 
  338   341   342     1 
  341   342   343     1 
  341   342   344     1 
  341   342   345     1 
  343   342   344     1 
  343   342   345     1 
  344   342   345     1 
  342   345   346     1 
  342   345   347     1 
  342   345   362     1 
  346   345   347     1 
  346   345   362     1 
  347   345   362     1 
  345   347   348     1 
  347   348   349     1 
  347   348   350     1 
  347   348   364     1 
  349   348   350     1 
  349   348   364     1 
  350   348   364     1 
  348   350   351     1 
  348   350   360     1 
  351   350   360     1 
  350   351   352     1 
  350   351   353     1 
  352   351   353     1 
  351   353   354     1 
  351   353   355     1 
  354   353   355     1 
  353   355   356     1 
  353   355   359     1 
  356   355   359     1 
  355   356   357     1 
  355   356   358     1 
  357   356   358     1 
  355   359   360     1 
  350   360   359     1 
  350   360   361     1 
  359   360   361     1 
  345   362   363     1 
  345   362   364     1 
  345   362   367     1 
  363   362   364     1 
  363   362   367     1 
  364   362   367     1 
  348   364   362     1 
  348   364   365     1 
  348   364   366     1 
  362   364   365     1 
  362   364   366     1 
  365   364   366     1 
  362   367   368     1 
  367   368   369     1 
  367   368   370     1 
  367   368   371     1 
  369   368   370     1 
  369   368   371     1 
  370   368   371     1 
  368   371   372     1 
  371   372   373     1 
  371   372   374     1 
  371   372   375     1 
  373   372   374     1 
  373   372   375     1 
  374   372   375     1 
  372   375   376     1 
  372   375   377     1 
  372   375   392     1 
  376   375   377     1 
  376   375   392     1 
  377   375   392     1 
  375   377   378     1 
  377   378   379     1 
  377   378   380     1 
  377   378   394     1 
  379   378   380     1 
  379   378   394     1 
  380   378   394     1 
  378   380   381     1 
  378   380   390     1 
  381   380   390     1 
  380   381   382     1 
  380   381   383     1 
  382   381   383     1 
  381   383   384     1 
  381   383   385     1 
  384   383   385     1 
  383   385   386     1 
  383   385   389     1 
  386   385   389     1 
  385   386   387     1 
  385   386   388     1 
  387   386   388     1 
  385   389   390     1 
  380   390   389     1 
  380   390   391     1 
  389   390   391     1 
  375   392   393     1 
  375   392   394     1 
  375   392   397     1 
  393   392   394     1 
  393   392   397     1 
  394   392   397     1 
  378   394   392     1 
  378   394   395     1 
  378   394   396     1 
  392   394   395     1 
  392   394   396     1 
  395   394   396     1 
  392   397   398     1 
  397   398   399     1 
  397   398   400     1 
  397   398   401     1 
  399   398   400     1 
  399   398   401     1 
  400   398   401     1 
  398   401   402     1 
  401   402   403     1 
  401   402   404     1 
  401   402   405     1 
  403   402   404     1 
  403   402   405     1 
  404   402   405     1 
  402   405   406     1 
  402   405   407     1 
  402   405   424     1 
  406   405   407     1 
  406   405   424     1 
  407   405   424     1 
  405   407   408     1 
  407   408   409     1 
  407   408   410     1 
  407   408   426     1 
  409   408   410     1 
  409   408   426     1 
  410   408   426     1 
  408   410   411     1 
  408   410   423     1 
  411   410   423     1 
  410   411   412     1 
  410   411   413     1 
  412   411   413     1 
  411   413   414     1 
  413   414   415     1 
  413   414   423     1 
  415   414   423     1 
  414   415   416     1 
  414   415   419     1 
  416   415   419     1 
  415   416   417     1 
  415   416   418     1 
  417   416   418     1 
  415   419   420     1 
  419   420   421     1 
  419   420   422     1 
  421   420   422     1 
  420   422   423     1 
  410   423   414     1 
  410   423   422     1 
  414   423   422     1 
  405   424   425     1 
  405   424   426     1 
  405   424   429     1 
  425   424   426     1 
  425   424   429     1 
  426   424   429     1 
  408   426   424     1 
  408   426   427     1 
  408   426   428     1 
  424   426   427     1 
  424   426   428     1 
  427   426   428     1 
  424   429   430     1 
  429   430   431     1 
  429   430   432     1 
  429   430   433     1 
  431   430   432     1 
  431   430   433     1 
  432   430   433     1 
  430   433   434     1 
  433   434   435     1 
  433   434   436     1 
  433   434   437     1 
  435   434   436     1 
  435   434   437     1 
  436   434   437     1 
  434   437   438     1 
  434   437   439     1 
  434   437   456     1 
  438   437   439     1 
  438   437   456     1 
  439   437   456     1 
  437   439   440     1 
  439   440   441     1 
  439   440   442     1 
  439   440   458     1 
  441   440   442     1 
  441   440   458     1 
  442   440   458     1 
  440   442   443     1 
  440   442   454     1 
  443   442   454     1 
  442   443   444     1 
  442   443   445     1 
  444   443   445     1 
  443   445   446     1 
  443   445   450     1 
  446   445   450     1 
  445   446   447     1 
  445   446   448     1 
  445   446   449     1 
  447   446   448     1 
  447   446   449     1 
  448   446   449     1 
  445   450   451     1 
  445   450   452     1 
  451   450   452     1 
  450   452   453     1 
  450   452   454     1 
  453   452   454     1 
  442   454   452     1 
  442   454   455     1 
  452   454   455     1 
  437   456   457     1 
  437   456   458     1 
  437   456   461     1 
  457   456   458     1 
  457   456   461     1 
  458   456   461     1 
  440   458   456     1 
  440   458   459     1 
  440   458   460     1 
  456   458   459     1 
  456   458   460     1 
  459   458   460     1 
  456   461   462     1 
  461   462   463     1 
  461   462   464     1 
  461   462   465     1 
  463   462   464     1 
  463   462   465     1 
  464   462   465     1 
  462   465   466     1 
  465   466   467     1 
  465   466   468     1 
  465   466   469     1 
  467   466   468     1 
  467   466   469     1 
  468   466   469     1 
  466   469   470     1 
  466   469   471     1 
  466   469   488     1 
  470   469   471     1 
  470   469   488     1 
  471   469   488     1 
  469   471   472     1 
  471   472   473     1 
  471   472   474     1 
  471   472   490     1 
  473   472   474     1 
  473   472   490     1 
  474   472   490     1 
  472   474   475     1 
  472   474   486     1 
  475   474   486     1 
  474   475   476     1 
  474   475   477     1 
  476   475   477     1 
  475   477   478     1 
  475   477   482     1 
  478   477   482     1 
  477   478   479     1 
  477   478   480     1 
  477   478   481     1 
  479   478   480     1 
  479   478   481     1 
  480   478   481     1 
  477   482   483     1 
  477   482   484     1 
  483   482   484     1 
  482   484   485     1 
  482   484   486     1 
  485   484   486     1 
  474   486   484     1 
  474   486   487     1 
  484   486   487     1 
  469   488   489     1 
  469   488   490     1 
  469   488   493     1 
  489   488   490     1 
  489   488   493     1 
  490   488   493     1 
  472   490   488     1 
  472   490   491     1 
  472   490   492     1 
  488   490   491     1 
  488   490   492     1 
  491   490   492     1 
  488   493   494     1 
  493   494   495     1 
  493   494   496     1 
  493   494   497     1 
  495   494   496     1 
  495   494   497     1 
  496   494   497     1 
  494   497   498     1 
  497   498   499     1 
  497   498   500     1 
  497   498   501     1 
  499   498   500     1 
  499   498   501     1 
  500   498   501     1 
  498   501   502     1 
  498   501   503     1 
  498   501   520     1 
  502   501   503     1 
  502   501   520     1 
  503   501   520     1 
  501   503   504     1 
  503   504   505     1 
  503   504   506     1 
  503   504   522     1 
  505   504   506     1 
  505   504   522     1 
  506   504   522     1 
  504   506   507     1 
  504   506   518     1 
  507   506   518     1 
  506   507   508     1 
  506   507   509     1 
  508   507   509     1 
  507   509   510     1 
  507   509   514     1 
  510   509   514     1 
  509   510   511     1 
  509   510   512     1 
  509   510   513     1 
  511   510   512     1 
  511   510   513     1 
  512   510   513     1 
  509   514   515     1 
  509   514   516     1 
  515   514   516     1 
  514   516   517     1 
  514   516   518     1 
  517   516   518     1 
  506   518   516     1 
  506   518   519     1 
  516   518   519     1 
  501   520   521     1 
  501   520   522     1 
  501   520   525     1 
  521   520   522     1 
  521   520   525     1 
  522   520   525     1 
  504   522   520     1 
  504   522   523     1 
  504   522   524     1 
  520   522   523     1 
  520   522   524     1 
  523   522   524     1 
  520   525   526     1 
  525   526   527     1 
  525   526   528     1 
  525   526   529     1 
  527   526   528     1 
  527   526   529     1 
  528   526   529     1 
  526   529   530     1 
  529   530   531     1 
  529   530   532     1 
  529   530   533     1 
  531   530   532     1 
  531   530   533     1 
  532   530   533     1 
  530   533   534     1 
  530   533   535     1 
  530   533   550     1 
  534   533   535     1 
  534   533   550     1 
  535   533   550     1 
  533   535   536     1 
  535   536   537     1 
  535   536   538     1 
  535   536   552     1 
  537   536   538     1 
  537   536   552     1 
  538   536   552     1 
  536   538   539     1 
  536   538   548     1 
  539   538   548     1 
  538   539   540     1 
  538   539   541     1 
  540   539   541     1 
  539   541   542     1 
  539   541   543     1 
  542   541   543     1 
  541   543   544     1 
  541   543   547     1 
  544   543   547     1 
  543   544   545     1 
  543   544   546     1 
  545   544   546     1 
  543   547   548     1 
  538   548   547     1 
  538   548   549     1 
  547   548   549     1 
  533   550   551     1 
  533   550   552     1 
  533   550   555     1 
  551   550   552     1 
  551   550   555     1 
  552   550   555     1 
  536   552   550     1 
  536   552   553     1 
  536   552   554     1 
  550   552   553     1 
  550   552   554     1 
  553   552   554     1 
  550   555   556     1 
  555   556   557     1 
  555   556   558     1 
  555   556   559     1 
  557   556   558     1 
  557   556   559     1 
  558   556   559     1 
  556   559   560     1 
  559   560   561     1 
  559   560   562     1 
  559   560   563     1 
  561   560   562     1 
  561   560   563     1 
  562   560   563     1 
  560   563   564     1 
  560   563   565     1 
  560   563   583     1 
  564   563   565     1 
  564   563   583     1 
  565   563   583     1 
  563   565   566     1 
  565   566   567     1 
  565   566   568     1 
  565   566   585     1 
  567   566   568     1 
  567   566   585     1 
  568   566   585     1 
  566   568   569     1 
  566   568   582     1 
  569   568   582     1 
  568   569   570     1 
  568   569   571     1 
  570   569   571     1 
  569   571   572     1 
  571   572   573     1 
  571   572   582     1 
  573   572   582     1 
  572   573   574     1 
  572   573   575     1 
  574   573   575     1 
  573   575   576     1 
  573   575   577     1 
  576   575   577     1 
  575   577   578     1 
  575   577   581     1 
  578   577   581     1 
  577   578   579     1 
  577   578   580     1 
  579   578   580     1 
  577   581   582     1 
  568   582   572     1 
  568   582   581     1 
  572   582   581     1 
  563   583   584     1 
  563   583   585     1 
  563   583   588     1 
  584   583   585     1 
  584   583   588     1 
  585   583   588     1 
  566   585   583     1 
  566   585   586     1 
  566   585   587     1 
  583   585   586     1 
  583   585   587     1 
  586   585   587     1 
  583   588   589     1 
  588   589   590     1 
  588   589   591     1 
  588   589   592     1 
  590   589   591     1 
  590   589   592     1 
  591   589   592     1 
  589   592   593     1 
  592   593   594     1 
  592   593   595     1 
  592   593   596     1 
  594   593   595     1 
  594   593   596     1 
  595   593   596     1 
  593   596   597     1 
  593   596   598     1 
  593   596   616     1 
  597   596   598     1 
  597   596   616     1 
  598   596   616     1 
  596   598   599     1 
  598   599   600     1 
  598   599   601     1 
  598   599   618     1 
  600   599   601     1 
  600   599   618     1 
  601   599   618     1 
  599   601   602     1 
  599   601   615     1 
  602   601   615     1 
  601   602   603     1 
  601   602   604     1 
  603   602   604     1 
  602   604   605     1 
  604   605   606     1 
  604   605   615     1 
  606   605   615     1 
  605   606   607     1 
  605   606   608     1 
  607   606   608     1 
  606   608   609     1 
  606   608   610     1 
  609   608   610     1 
  608   610   611     1 
  608   610   614     1 
  611   610   614     1 
  610   611   612     1 
  610   611   613     1 
  612   611   613     1 
  610   614   615     1 
  601   615   605     1 
  601   615   614     1 
  605   615   614     1 
  596   616   617     1 
  596   616   618     1 
  596   616   621     1 
  617   616   618     1 
  617   616   621     1 
  618   616   621     1 
  599   618   616     1 
  599   618   619     1 
  599   618   620     1 
  616   618   619     1 
  616   618   620     1 
  619   618   620     1 
  616   621   622     1 
  621   622   623     1 
  621   622   624     1 
  621   622   625     1 
  623   622   624     1 
  623   622   625     1 
  624   622   625     1 
  622   625   626     1 
  625   626   627     1 
  625   626   628     1 
  625   626   629     1 
  627   626   628     1 
  627   626   629     1 
  628   626   629     1 
  626   629   630     1 
  626   629   631     1 
  626   629   648     1 
  630   629   631     1 
  630   629   648     1 
  631   629   648     1 
  629   631   632     1 
  631   632   633     1 
  631   632   634     1 
  631   632   650     1 
  633   632   634     1 
  633   632   650     1 
  634   632   650     1 
  632   634   635     1 
  632   634   647     1 
  635   634   647     1 
  634   635   636     1 
  634   635   637     1 
  636   635   637     1 
  635   637   638     1 
  637   638   639     1 
  637   638   647     1 
  639   638   647     1 
  638   639   640     1 
  638   639   643     1 
  640   639   643     1 
  639   640   641     1 
  639   640   642     1 
  641   640   642     1 
  639   643   644     1 
  643   644   645     1 
  643   644   646     1 
  645   644   646     1 
  644   646   647     1 
  634   647   638     1 
  634   647   646     1 
  638   647   646     1 
  629   648   649     1 
  629   648   650     1 
  629   648   653     1 
  649   648   650     1 
  649   648   653     1 
  650   648   653     1 
  632   650   648     1 
  632   650   651     1 
  632   650   652     1 
  648   650   651     1 
  648   650   652     1 
  651   650   652     1 
  648   653   654     1 
  653   654   655     1 
  653   654   656     1 
  653   654   657     1 
  655   654   656     1 
  655   654   657     1 
  656   654   657     1 
  654   657   658     1 
  657   658   659     1 
  657   658   660     1 
  657   658   661     1 
  659   658   660     1 
  659   658   661     1 
  660   658   661     1 
  658   661   662     1 
  658   661   663     1 
  658   661   678     1 
  662   661   663     1 
  662   661   678     1 
  663   661   678     1 
  661   663   664     1 
  663   664   665     1 
  663   664   666     1 
  663   664   680     1 
  665   664   666     1 
  665   664   680     1 
  666   664   680     1 
  664   666   667     1 
  664   666   676     1 
  667   666   676     1 
  666   667   668     1 
  666   667   669     1 
  668   667   669     1 
  667   669   670     1 
  667   669   671     1 
  670   669   671     1 
  669   671   672     1 
  669   671   675     1 
  672   671   675     1 
  671   672   673     1 
  671   672   674     1 
  673   672   674     1 
  671   675   676     1 
  666   676   675     1 
  666   676   677     1 
  675   676   677     1 
  661   678   679     1 
  661   678   680     1 
  661   678   683     1 
  679   678   680     1 
  679   678   683     1 
  680   678   683     1 
  664   680   678     1 
  664   680   681     1 
  664   680   682     1 
  678   680   681     1 
  678   680   682     1 
  681   680   682     1 
  678   683   684     1 
  683   684   685     1 
  683   684   686     1 
  683   684   687     1 
  685   684   686     1 
  685   684   687     1 
  686   684   687     1 
  684   687   688     1 
  687   688   689     1 
  687   688   690     1 
  687   688   691     1 
  689   688   690     1 
  689   688   691     1 
  690   688   691     1 
  688   691   692     1 
  688   691   693     1 
  688   691   710     1 
  692   691   693     1 
  692   691   710     1 
  693   691   710     1 
  691   693   694     1 
  693   694   695     1 
  693   694   696     1 
  693   694   712     1 
  695   694   696     1 
  695   694   712     1 
  696   694   712     1 
  694   696   697     1 
  694   696   708     1 
  697   696   708     1 
  696   697   698     1 
  696   697   699     1 
  698   697   699     1 
  697   699   700     1 
  697   699   704     1 
  700   699   704     1 
  699   700   701     1 
  699   700   702     1 
  699   700   703     1 
  701   700   702     1 
  701   700   703     1 
  702   700   703     1 
  699   704   705     1 
  699   704   706     1 
  705   704   706     1 
  704   706   707     1 
  704   706   708     1 
  707   706   708     1 
  696   708   706     1 
  696   708   709     1 
  706   708   709     1 
  691   710   711     1 
  691   710   712     1 
  691   710   715     1 
  711   710   712     1 
  711   710   715     1 
  712   710   715     1 
  694   712   710     1 
  694   712   713     1 
  694   712   714     1 
  710   712   713     1 
  710   712   714     1 
  713   712   714     1 
  710   715   716     1 
  715   716   717     1 
  715   716   718     1 
  715   716   719     1 
  717   716   718     1 
  717   716   719     1 
  718   716   719     1 
  716   719   720     1 
  719   720   721     1 
  719   720   722     1 
  719   720   723     1 
  721   720   722     1 
  721   720   723     1 
  722   720   723     1 
  720   723   724     1 
  720   723   725     1 
  720   723   743     1 
  724   723   725     1 
  724   723   743     1 
  725   723   743     1 
  723   725   726     1 
  725   726   727     1 
  725   726   728     1 
  725   726   745     1 
  727   726   728     1 
  727   726   745     1 
  728   726   745     1 
  726   728   729     1 
  726   728   742     1 
  729   728   742     1 
  728   729   730     1 
  728   729   731     1 
  730   729   731     1 
  729   731   732     1 
  731   732   733     1 
  731   732   742     1 
  733   732   742     1 
  732   733   734     1 
  732   733   735     1 
  734   733   735     1 
  733   735   736     1 
  733   735   737     1 
  736   735   737     1 
  735   737   738     1 
  735   737   741     1 
  738   737   741     1 
  737   738   739     1 
  737   738   740     1 
  739   738   740     1 
  737   741   742     1 
  728   742   732     1 
  728   742   741     1 
  732   742   741     1 
  723   743   744     1 
  723   743   745     1 
  723   743   748     1 
  744   743   745     1 
  744   743   748     1 
  745   743   748     1 
  726   745   743     1 
  726   745   746     1 
  726   745   747     1 
  743   745   746     1 
  743   745   747     1 
  746   745   747     1 
  743   748   749     1 
  748   749   750     1 
  748   749   751     1 
  748   749   752     1 
  750   749   751     1 
  750   749   752     1 
  751   749   752     1 
  749   752   753     1 
  752   753   754     1 
  752   753   755     1 
  752   753   756     1 
  754   753   755     1 
  754   753   756     1 
  755   753   756     1 
  753   756   757     1 
  753   756   758     1 
  753   756   776     1 
  757   756   758     1 
  757   756   776     1 
  758   756   776     1 
  756   758   759     1 
  758   759   760     1 
  758   759   761     1 
  758   759   778     1 
  760   759   761     1 
  760   759   778     1 
  761   759   778     1 
  759   761   762     1 
  759   761   775     1 
  762   761   775     1 
  761   762   763     1 
  761   762   764     1 
  763   762   764     1 
  762   764   765     1 
  764   765   766     1 
  764   765   775     1 
  766   765   775     1 
  765   766   767     1 
  765   766   768     1 
  767   766   768     1 
  766   768   769     1 
  766   768   770     1 
  769   768   770     1 
  768   770   771     1 
  768   770   774     1 
  771   770   774     1 
  770   771   772     1 
  770   771   773     1 
  772   771   773     1 
  770   774   775     1 
  761   775   765     1 
  761   775   774     1 
  765   775   774     1 
  756   776   777     1 
  756   776   778     1 
  756   776   781     1 
  777   776   778     1 
  777   776   781     1 
  778   776   781     1 
  759   778   776     1 
  759   778   779     1 
  759   778   780     1 
  776   778   779     1 
  776   778   780     1 
  779   778   780     1 
  776   781   782     1 
  781   782   783     1 
  781   782   784     1 
  781   782   785     1 
  783   782   784     1 
  783   782   785     1 
  784   782   785     1 
  782   785   786     1 
  785   786   787     1 
  785   786   788     1 
  785   786   789     1 
  787   786   788     1 
  787   786   789     1 
  788   786   789     1 
  786   789   790     1 
  786   789   791     1 
  786   789   809     1 
  790   789   791     1 
  790   789   809     1 
  791   789   809     1 
  789   791   792     1 
  791   792   793     1 
  791   792   794     1 
  791   792   811     1 
  793   792   794     1 
  793   792   811     1 
  794   792   811     1 
  792   794   795     1 
  792   794   808     1 
  795   794   808     1 
  794   795   796     1 
  794   795   797     1 
  796   795   797     1 
  795   797   798     1 
  797   798   799     1 
  797   798   808     1 
  799   798   808     1 
  798   799   800     1 
  798   799   801     1 
  800   799   801     1 
  799   801   802     1 
  799   801   803     1 
  802   801   803     1 
  801   803   804     1 
  801   803   807     1 
  804   803   807     1 
  803   804   805     1 
  803   804   806     1 
  805   804   806     1 
  803   807   808     1 
  794   808   798     1 
  794   808   807     1 
  798   808   807     1 
  789   809   810     1 
  789   809   811     1 
  789   809   814     1 
  810   809   811     1 
  810   809   814     1 
  811   809   814     1 
  792   811   809     1 
  792   811   812     1 
  792   811   813     1 
  809   811   812     1 
  809   811   813     1 
  812   811   813     1 
  809   814   815     1 
  814   815   816     1 
  814   815   817     1 
  814   815   818     1 
  816   815   817     1 
  816   815   818     1 
  817   815   818     1 
  815   818   819     1 
  818   819   820     1 
  818   819   821     1 
  818   819   822     1 
  820   819   821     1 
  820   819   822     1 
  821   819   822     1 
  819   822   823     1 
  819   822   824     1 
  819   822   841     1 
  823   822   824     1 
  823   822   841     1 
  824   822   841     1 
  822   824   825     1 
  824   825   826     1 
  824   825   827     1 
  824   825   843     1 
  826   825   827     1 
  826   825   843     1 
  827   825   843     1 
  825   827   828     1 
  825   827   840     1 
  828   827   840     1 
  827   828   829     1 
  827   828   830     1 
  829   828   830     1 
  828   830   831     1 
  830   831   832     1 
  830   831   840     1 
  832   831   840     1 
  831   832   833     1 
  831   832   836     1 
  833   832   836     1 
  832   833   834     1 
  832   833   835     1 
  834   833   835     1 
  832   836   837     1 
  836   837   838     1 
  836   837   839     1 
  838   837   839     1 
  837   839   840     1 
  827   840   831     1 
  827   840   839     1 
  831   840   839     1 
  822   841   842     1 
  822   841   843     1 
  822   841   846     1 
  842   841   843     1 
  842   841   846     1 
  843   841   846     1 
  825   843   841     1 
  825   843   844     1 
  825   843   845     1 
  841   843   844     1 
  841   843   845     1 
  844   843   845     1 
  841   846   847     1 
  846   847   848     1 
  846   847   849     1 
  846   847   850     1 
  848   847   849     1 
  848   847   850     1 
  849   847   850     1 
  847   850   851     1 
  850   851   852     1 
  850   851   853     1 
  850   851   854     1 
  852   851   853     1 
  852   851   854     1 
  853   851   854     1 
  851   854   855     1 
  851   854   856     1 
  851   854   874     1 
  855   854   856     1 
  855   854   874     1 
  856   854   874     1 
  854   856   857     1 
  856   857   858     1 
  856   857   859     1 
  856   857   876     1 
  858   857   859     1 
  858   857   876     1 
  859   857   876     1 
  857   859   860     1 
  857   859   873     1 
  860   859   873     1 
  859   860   861     1 
  859   860   862     1 
  861   860   862     1 
  860   862   863     1 
  862   863   864     1 
  862   863   873     1 
  864   863   873     1 
  863   864   865     1 
  863   864   866     1 
  865   864   866     1 
  864   866   867     1 
  864   866   868     1 
  867   866   868     1 
  866   868   869     1 
  866   868   872     1 
  869   868   872     1 
  868   869   870     1 
  868   869   871     1 
  870   869   871     1 
  868   872   873     1 
  859   873   863     1 
  859   873   872     1 
  863   873   872     1 
  854   874   875     1 
  854   874   876     1 
  854   874   879     1 
  875   874   876     1 
  875   874   879     1 
  876   874   879     1 
  857   876   874     1 
  857   876   877     1 
  857   876   878     1 
  874   876   877     1 
  874   876   878     1 
  877   876   878     1 
  874   879   880     1 
  879   880   881     1 
  879   880   882     1 
  879   880   883     1 
  881   880   882     1 
  881   880   883     1 
  882   880   883     1 
  880   883   884     1 
  883   884   885     1 
  883   884   886     1 
  883   884   887     1 
  885   884   886     1 
  885   884   887     1 
  886   884   887     1 
  884   887   888     1 
  884   887   889     1 
  884   887   904     1 
  888   887   889     1 
  888   887   904     1 
  889   887   904     1 
  887   889   890     1 
  889   890   891     1 
  889   890   892     1 
  889   890   906     1 
  891   890   892     1 
  891   890   906     1 
  892   890   906     1 
  890   892   893     1 
  890   892   902     1 
  893   892   902     1 
  892   893   894     1 
  892   893   895     1 
  894   893   895     1 
  893   895   896     1 
  893   895   897     1 
  896   895   897     1 
  895   897   898     1 
  895   897   901     1 
  898   897   901     1 
  897   898   899     1 
  897   898   900     1 
  899   898   900     1 
  897   901   902     1 
  892   902   901     1 
  892   902   903     1 
  901   902   903     1 
  887   904   905     1 
  887   904   906     1 
  887   904   909     1 
  905   904   906     1 
  905   904   909     1 
  906   904   909     1 
  890   906   904     1 
  890   906   907     1 
  890   906   908     1 
  904   906   907     1 
  904   906   908     1 
  907   906   908     1 
  904   909   910     1 
  909   910   911     1 
  909   910   912     1 
  909   910   913     1 
  911   910   912     1 
  911   910   913     1 
  912   910   913     1 
  910   913   914     1 
  913   914   915     1 
  913   914   916     1 
  913   914   917     1 
  915   914   916     1 
  915   914   917     1 
  916   914   917     1 
  914   917   918     1 
  914   917   919     1 
  914   917   937     1 
  918   917   919     1 
  918   917   937     1 
  919   917   937     1 
  917   919   920     1 
  919   920   921     1 
  919   920   922     1 
  919   920   939     1 
  921   920   922     1 
  921   920   939     1 
  922   920   939     1 
  920   922   923     1 
  920   922   936     1 
  923   922   936     1 
  922   923   924     1 
  922   923   925     1 
  924   923   925     1 
  923   925   926     1 
  925   926   927     1 
  925   926   936     1 
  927   926   936     1 
  926   927   928     1 
  926   927   929     1 
  928   927   929     1 
  927   929   930     1 
  927   929   931     1 
  930   929   931     1 
  929   931   932     1 
  929   931   935     1 
  932   931   935     1 
  931   932   933     1 
  931   932   934     1 
  933   932   934     1 
  931   935   936     1 
  922   936   926     1 
  922   936   935     1 
  926   936   935     1 
  917   937   938     1 
  917   937   939     1 
  917   937   942     1 
  938   937   939     1 
  938   937   942     1 
  939   937   942     1 
  920   939   937     1 
  920   939   940     1 
  920   939   941     1 
  937   939   940     1 
  937   939   941     1 
  940   939   941     1 
  937   942   943     1 
  942   943   944     1 
  942   943   945     1 
  942   943   946     1 
  944   943   945     1 
  944   943   946     1 
  945   943   946     1 
  943   946   947     1 
  946   947   948     1 
  946   947   949     1 
  946   947   950     1 
  948   947   949     1 
  948   947   950     1 
  949   947   950     1 
  947   950   951     1 
  947   950   952     1 
  947   950   969     1 
  951   950   952     1 
  951   950   969     1 
  952   950   969     1 
  950   952   953     1 
  952   953   954     1 
  952   953   955     1 
  952   953   971     1 
  954   953   955     1 
  954   953   971     1 
  955   953   971     1 
  953   955   956     1 
  953   955   968     1 
  956   955   968     1 
  955   956   957     1 
  955   956   958     1 
  957   956   958     1 
  956   958   959     1 
  958   959   960     1 
  958   959   968     1 
  960   959   968     1 
  959   960   961     1 
  959   960   964     1 
  961   960   964     1 
  960   961   962     1 
  960   961   963     1 
  962   961   963     1 
  960   964   965     1 
  964   965   966     1 
  964   965   967     1 
  966   965   967     1 
  965   967   968     1 
  955   968   959     1 
  955   968   967     1 
  959   968   967     1 
  950   969   970     1 
  950   969   971     1 
  950   969   974     1 
  970   969   971     1 
  970   969   974     1 
  971   969   974     1 
  953   971   969     1 
  953   971   972     1 
  953   971   973     1 
  969   971   972     1 
  969   971   973     1 
  972   971   973     1 
  969   974   975     1 
  974   975   976     1 
  974   975   977     1 
  974   975   978     1 
  976   975   977     1 
  976   975   978     1 
  977   975   978     1 
  975   978   979     1 
  978   979   980     1 
  978   979   981     1 
  978   979   982     1 
  980   979   981     1 
  980   979   982     1 
  981   979   982     1 
  979   982   983     1 
  979   982   984     1 
  979   982  1002     1 
  983   982   984     1 
  983   982  1002     1 
  984   982  1002     1 
  982   984   985     1 
  984   985   986     1 
  984   985   987     1 
  984   985  1004     1 
  986   985   987     1 
  986   985  1004     1 
  987   985  1004     1 
  985   987   988     1 
  985   987  1001     1 
  988   987  1001     1 
  987   988   989     1 
  987   988   990     1 
  989   988   990     1 
  988   990   991     1 
  990   991   992     1 
  990   991  1001     1 
  992   991  1001     1 
  991   992   993     1 
  991   992   994     1 
  993   992   994     1 
  992   994   995     1 
  992   994   996     1 
  995   994   996     1 
  994   996   997     1 
  994   996  1000     1 
  997   996  1000     1 
  996   997   998     1 
  996   997   999     1 
  998   997   999     1 
  996  1000  1001     1 
  987  1001   991     1 
  987  1001  1000     1 
  991  1001  1000     1 
  982  1002  1003     1 
  982  1002  1004     1 
  982  1002  1007     1 
 1003  1002  1004     1 
 1003  1002  1007     1 
 1004  1002  1007     1 
  985  1004  1002     1 
  985  1004  1005     1 
  985  1004  1006     1 
 1002  1004  1005     1 
 1002  1004  1006     1 
 1005  1004  1006     1 
 1002  1007  1008     1 
 1007  1008  1009     1 
 1007  1008  1010     1 
 1007  1008  1011     1 
 1009  1008  1010     1 
 1009  1008  1011     1 
 1010  1008  1011     1 
 1008  1011  1012     1 
 1011  1012  1013     1 
 1011  1012  1014     1 
 1011  1012  1015     1 
 1013  1012  1014     1 
 1013  1012  1015     1 
 1014  1012  1015     1 
 1012  1015  1016     1 
 1012  1015  1017     1 
 1012  1015  1032     1 
 1016  1015  1017     1 
 1016  1015  1032     1 
 1017  1015  1032     1 
 1015  1017  1018     1 
 1017  1018  1019     1 
 1017  1018  1020     1 
 1017  1018  1034     1 
 1019  1018  1020     1 
 1019  1018  1034     1 
 1020  1018  1034     1 
 1018  1020  1021     1 
 1018  1020  1030     1 
 1021  1020  1030     1 
 1020  1021  1022     1 
 1020  1021  1023     1 
 1022  1021  1023     1 
 1021  1023  1024     1 
 1021  1023  1025     1 
 1024  1023  1025     1 
 1023  1025  1026     1 
 1023  1025  1029     1 
 1026  1025  1029     1 
 1025  1026  1027     1 
 1025  1026  1028     1 
 1027  1026  1028     1 
 1025  1029  1030     1 
 1020  1030  1029     1 
 1020  1030  1031     1 
 1029  1030  1031     1 
 1015  1032  1033     1 
 1015  1032  1034     1 
 1015  1032  1037     1 
 1033  1032  1034     1 
 1033  1032  1037     1 
 1034  1032  1037     1 
 1018  1034  1032     1 
 1018  1034  1035     1 
 1018  1034  1036     1 
 1032  1034  1035     1 
 1032  1034  1036     1 
 1035  1034  1036     1 
 1032  1037  1038     1 
 1037  1038  1039     1 
 1037  1038  1040     1 
 1037  1038  1041     1 
 1039  1038  1040     1 
 1039  1038  1041     1 
 1040  1038  1041     1 
 1038  1041  1042     1 
 1041  1042  1043     1 
 1041  1042  1044     1 
 1041  1042  1045     1 
 1043  1042  1044     1 
 1043  1042  1045     1 
 1044  1042  1045     1 
 1042  1045  1046     1 
 1042  1045  1047     1 
 1042  1045  1065     1 
 1046  1045  1047     1 
 1046  1045  1065     1 
 1047  1045  1065     1 
 1045  1047  1048     1 
 1047  1048  1049     1 
 1047  1048  1050     1 
 1047  1048  1067     1 
 1049  1048  1050     1 
 1049  1048  1067     1 
 1050  1048  1067     1 
 1048  1050  1051     1 
 1048  1050  1064     1 
 1051  1050  1064     1 
 1050  1051  1052     1 
 1050  1051  1053     1 
 1052  1051  1053     1 
 1051  1053  1054     1 
 1053  1054  1055     1 
 1053  1054  1064     1 
 1055  1054  1064     1 
 1054  1055  1056     1 
 1054  1055  1057     1 
 1056  1055  1057     1 
 1055  1057  1058     1 
 1055  1057  1059     1 
 1058  1057  1059     1 
 1057  1059  1060     1 
 1057  1059  1063     1 
 1060  1059  1063     1 
 1059  1060  1061     1 
 1059  1060  1062     1 
 1061  1060  1062     1 
 1059  1063  1064     1 
 1050  1064  1054     1 
 1050  1064  1063     1 
 1054  1064  1063     1 
 1045  1065  1066     1 
 1045  1065  1067     1 
 1045  1065  1070     1 
 1066  1065  1067     1 
 1066  1065  1070     1 
 1067  1065  1070     1 
 1048  1067  1065     1 
 1048  1067  1068     1 
 1048  1067  1069     1 
 1065  1067  1068     1 
 1065  1067  1069     1 
 1068  1067  1069     1 
 1065  1070  1071     1 
 1070  1071  1072     1 
 1070  1071  1073     1 
 1070  1071  1074     1 
 1072  1071  1073     1 
 1072  1071  1074     1 
 1073  1071  1074     1 
 1071  1074  1075     1 
 1074  1075  1076     1 
 1074  1075  1077     1 
 1074  1075  1078     1 
 1076  1075  1077     1 
 1076  1075  1078     1 
 1077  1075  1078     1 
 1075  1078  1079     1 
 1075  1078  1080     1 
 1075  1078  1095     1 
 1079  1078  1080     1 
 1079  1078  1095     1 
 1080  1078  1095     1 
 1078  1080  1081     1 
 1080  1081  1082     1 
 1080  1081  1083     1 
 1080  1081  1097     1 
 1082  1081  1083     1 
 1082  1081  1097     1 
 1083  1081  1097     1 
 1081  1083  1084     1 
 1081  1083  1093     1 
 1084  1083  1093     1 
 1083  1084  1085     1 
 1083  1084  1086     1 
 1085  1084  1086     1 
 1084  1086  1087     1 
 1084  1086  1088     1 
 1087  1086  1088     1 
 1086  1088  1089     1 
 1086  1088  1092     1 
 1089  1088  1092     1 
 1088  1089  1090     1 
 1088  1089  1091     1 
 1090  1089  1091     1 
 1088  1092  1093     1 
 1083  1093  1092     1 
 1083  1093  1094     1 
 1092  1093  1094     1 
 1078  1095  1096     1 
 1078  1095  1097     1 
 1078  1095  1100     1 
 1096  1095  1097     1 
 1096  1095  1100     1 
 1097  1095  1100     1 
 1081  1097  1095     1 
 1081  1097  1098     1 
 1081  1097  1099     1 
 1095  1097  1098     1 
 1095  1097  1099     1 
 1098  1097  1099     1 
 1095  1100  1101     1 
 1100  1101  1102     1 
 1100  1101  1103     1 
 1100  1101  1104     1 
 1102  1101  1103     1 
 1102  1101  1104     1 
 1103  1101  1104     1 
 1101  1104  1105     1 
 1104  1105  1106     1 
 1104  1105  1107     1 
 1104  1105  1108     1 
 1106  1105  1107     1 
 1106  1105  1108     1 
 1107  1105  1108     1 
 1105  1108  1109     1 
 1105  1108  1110     1 
 1105  1108  1128     1 
 1109  1108  1110     1 
 1109  1108  1128     1 
 1110  1108  1128     1 
 1108  1110  1111     1 
 1110  1111  1112     1 
 1110  1111  1113     1 
 1110  1111  1130     1 
 1112  1111  1113     1 
 1112  1111  1130     1 
 1113  1111  1130     1 
 1111  1113  1114     1 
 1111  1113  1127     1 
 1114  1113  1127     1 
 1113  1114  1115     1 
 1113  1114  1116     1 
 1115  1114  1116     1 
 1114  1116  1117     1 
 1116  1117  1118     1 
 1116  1117  1127     1 
 1118  1117  1127     1 
 1117  1118  1119     1 
 1117  1118  1120     1 
 1119  1118  1120     1 
 1118  1120  1121     1 
 1118  1120  1122     1 
 1121  1120  1122     1 
 1120  1122  1123     1 
 1120  1122  1126     1 
 1123  1122  1126     1 
 1122  1123  1124     1 
 1122  1123  1125     1 
 1124  1123  1125     1 
 1122  1126  1127     1 
 1113  1127  1117     1 
 1113  1127  1126     1 
 1117  1127  1126     1 
 1108  1128  1129     1 
 1108  1128  1130     1 
 1108  1128  1133     1 
 1129  1128  1130     1 
 1129  1128  1133     1 
 1130  1128  1133     1 
 1111  1130  1128     1 
 1111  1130  1131     1 
 1111  1130  1132     1 
 1128  1130  1131     1 
 1128  1130  1132     1 
 1131  1130  1132     1 
 1128  1133  1134     1 
 1133  1134  1135     1 
 1133  1134  1136     1 
 1133  1134  1137     1 
 1135  1134  1136     1 
 1135  1134  1137     1 
 1136  1134  1137     1 
 1134  1137  1138     1 
 1137  1138  1139     1 
 1137  1138  1140     1 
 1137  1138  1141     1 
 1139  1138  1140     1 
 1139  1138  1141     1 
 1140  1138  1141     1 
 1138  1141  1142     1 
 1138  1141  1143     1 
 1138  1141  1161     1 
 1142  1141  1143     1 
 1142  1141  1161     1 
 1143  1141  1161     1 
 1141  1143  1144     1 
 1143  1144  1145     1 
 1143  1144  1146     1 
 1143  1144  1163     1 
 1145  1144  1146     1 
 1145  1144  1163     1 
 1146  1144  1163     1 
 1144  1146  1147     1 
 1144  1146  1160     1 
 1147  1146  1160     1 
 1146  1147  1148     1 
 1146  1147  1149     1 
 1148  1147  1149     1 
 1147  1149  1150     1 
 1149  1150  1151     1 
 1149  1150  1160     1 
 1151  1150  1160     1 
 1150  1151  1152     1 
 1150  1151  1153     1 
 1152  1151  1153     1 
 1151  1153  1154     1 
 1151  1153  1155     1 
 1154  1153  1155     1 
 1153  1155  1156     1 
 1153  1155  1159     1 
 1156  1155  1159     1 
 1155  1156  1157     1 
 1155  1156  1158     1 
 1157  1156  1158     1 
 1155  1159  1160     1 
 1146  1160  1150     1 
 1146  1160  1159     1 
 1150  1160  1159     1 
 1141  1161  1162     1 
 1141  1161  1163     1 
 1141  1161  1166     1 
 1162  1161  1163     1 
 1162  1161  1166     1 
 1163  1161  1166     1 
 1144  1163  1161     1 
 1144  1163  1164     1 
 1144  1163  1165     1 
 1161  1163  1164     1 
 1161  1163  1165     1 
 1164  1163  1165     1 
 1161  1166  1167     1 
 1166  1167  1168     1 
 1166  1167  1169     1 
 1166  1167  1170     1 
 1168  1167  1169     1 
 1168  1167  1170     1 
 1169  1167  1170     1 
 1167  1170  1171     1 
 1170  1171  1172     1 
 1170  1171  1173     1 
 1170  1171  1174     1 
 1172  1171  1173     1 
 1172  1171  1174     1 
 1173  1171  1174     1 
 1171  1174  1175     1 
 1171  1174  1176     1 
 1171  1174  1191     1 
 1175  1174  1176     1 
 1175  1174  1191     1 
 1176  1174  1191     1 
 1174  1176  1177     1 
 1176  1177  1178     1 
 1176  1177  1179     1 
 1176  1177  1193     1 
 1178  1177  1179     1 
 1178  1177  1193     1 
 1179  1177  1193     1 
 1177  1179  1180     1 
 1177  1179  1189     1 
 1180  1179  1189     1 
 1179  1180  1181     1 
 1179  1180  1182     1 
 1181  1180  1182     1 
 1180  1182  1183     1 
 1180  1182  1184     1 
 1183  1182  1184     1 
 1182  1184  1185     1 
 1182  1184  1188     1 
 1185  1184  1188     1 
 1184  1185  1186     1 
 1184  1185  1187     1 
 1186  1185  1187     1 
 1184  1188  1189     1 
 1179  1189  1188     1 
 1179  1189  1190     1 
 1188  1189  1190     1 
 1174  1191  1192     1 
 1174  1191  1193     1 
 1174  1191  1196     1 
 1192  1191  1193     1 
 1192  1191  1196     1 
 1193  1191  1196     1 
 1177  1193  1191     1 
 1177  1193  1194     1 
 1177  1193  1195     1 
 1191  1193  1194     1 
 1191  1193  1195     1 
 1194  1193  1195     1 
 1191  1196  1197     1 
 1196  1197  1198     1 
 1196  1197  1199     1 
 1196  1197  1200     1 
 1198  1197  1199     1 
 1198  1197  1200     1 
 1199  1197  1200     1 
 1197  1200  1201     1 
 1200  1201  1202     1 
 1200  1201  1203     1 
 1200  1201  1204     1 
 1202  1201  1203     1 
 1202  1201  1204     1 
 1203  1201  1204     1 
 1201  1204  1205     1 
 1201  1204  1206     1 
 1201  1204  1224     1 
 1205  1204  1206     1 
 1205  1204  1224     1 
 1206  1204  1224     1 
 1204  1206  1207     1 
 1206  1207  1208     1 
 1206  1207  1209     1 
 1206  1207  1226     1 
 1208  1207  1209     1 
 1208  1207  1226     1 
 1209  1207  1226     1 
 1207  1209  1210     1 
 1207  1209  1223     1 
 1210  1209  1223     1 
 1209  1210  1211     1 
 1209  1210  1212     1 
 1211  1210  1212     1 
 1210  1212  1213     1 
 1212  1213  1214     1 
 1212  1213  1223     1 
 1214  1213  1223     1 
 1213  1214  1215     1 
 1213  1214  1216     1 
 1215  1214  1216     1 
 1214  1216  1217     1 
 1214  1216  1218     1 
 1217  1216  1218     1 
 1216  1218  1219     1 
 1216  1218  1222     1 
 1219  1218  1222     1 
 1218  1219  1220     1 
 1218  1219  1221     1 
 1220  1219  1221     1 
 1218  1222  1223     1 
 1209  1223  1213     1 
 1209  1223  1222     1 
 1213  1223  1222     1 
 1204  1224  1225     1 
 1204  1224  1226     1 
 1204  1224  1229     1 
 1225  1224  1226     1 
 1225  1224  1229     1 
 1226  1224  1229     1 
 1207  1226  1224     1 
 1207  1226  1227     1 
 1207  1226  1228     1 
 1224  1226  1227     1 
 1224  1226  1228     1 
 1227  1226  1228     1 
 1224  1229  1230     1 
 1229  1230  1231     1 
 1229  1230  1232     1 
 1229  1230  1233     1 
 1231  1230  1232     1 
 1231  1230  1233     1 
 1232  1230  1233     1 
 1230  1233  1234     1 
 1233  1234  1235     1 
 1233  1234  1236     1 
 1233  1234  1237     1 
 1235  1234  1236     1 
 1235  1234  1237     1 
 1236  1234  1237     1 
 1234  1237  1238     1 
 1234  1237  1239     1 
 1234  1237  1254     1 
 1238  1237  1239     1 
 1238  1237  1254     1 
 1239  1237  1254     1 
 1237  1239  1240     1 
 1239  1240  1241     1 
 1239  1240  1242     1 
 1239  1240  1256     1 
 1241  1240  1242     1 
 1241  1240  1256     1 
 1242  1240  1256     1 
 1240  1242  1243     1 
 1240  1242  1252     1 
 1243  1242  1252     1 
 1242  1243  1244     1 
 1242  1243  1245     1 
 1244  1243  1245     1 
 1243  1245  1246     1 
 1243  1245  1247     1 
 1246  1245  1247     1 
 1245  1247  1248     1 
 1245  1247  1251     1 
 1248  1247  1251     1 
 1247  1248  1249     1 
 1247  1248  1250     1 
 1249  1248  1250     1 
 1247  1251  1252     1 
 1242  1252  1251     1 
 1242  1252  1253     1 
 1251  1252  1253     1 
 1237  1254  1255     1 
 1237  1254  1256     1 
 1237  1254  1259     1 
 1255  1254  1256     1 
 1255  1254  1259     1 
 1256  1254  1259     1 
 1240  1256  1254     1 
 1240  1256  1257     1 
 1240  1256  1258     1 
 1254  1256  1257     1 
 1254  1256  1258     1 
 1257  1256  1258     1 
 1254  1259  1260     1 
 1259  1260  1261     1 
 1259  1260  1262     1 
 1259  1260  1263     1 
 1261  1260  1262     1 
 1261  1260  1263     1 
 1262  1260  1263     1 
 1260  1263  1264     1 
 1263  1264  1265     1 
 1263  1264  1266     1 
 1263  1264  1267     1 
 1265  1264  1266     1 
 1265  1264  1267     1 
 1266  1264  1267     1 
 1264  1267  1268     1 
 1264  1267  1269     1 
 1264  1267  1286     1 
 1268  1267  1269     1 
 1268  1267  1286     1 
 1269  1267  1286     1 
 1267  1269  1270     1 
 1269  1270  1271     1 
 1269  1270  1272     1 
 1269  1270  1288     1 
 1271  1270  1272     1 
 1271  1270  1288     1 
 1272  1270  1288     1 
 1270  1272  1273     1 
 1270  1272  1285     1 
 1273  1272  1285     1 
 1272  1273  1274     1 
 1272  1273  1275     1 
 1274  1273  1275     1 
 1273  1275  1276     1 
 1275  1276  1277     1 
 1275  1276  1285     1 
 1277  1276  1285     1 
 1276  1277  1278     1 
 1276  1277  1281     1 
 1278  1277  1281     1 
 1277  1278  1279     1 
 1277  1278  1280     1 
 1279  1278  1280     1 
 1277  1281  1282     1 
 1281  1282  1283     1 
 1281  1282  1284     1 
 1283  1282  1284     1 
 1282  1284  1285     1 
 1272  1285  1276     1 
 1272  1285  1284     1 
 1276  1285  1284     1 
 1267  1286  1287     1 
 1267  1286  1288     1 
 1267  1286  1291     1 
 1287  1286  1288     1 
 1287  1286  1291     1 
 1288  1286  1291     1 
 1270  1288  1286     1 
 1270  1288  1289     1 
 1270  1288  1290     1 
 1286  1288  1289     1 
 1286  1288  1290     1 
 1289  1288  1290     1 
 1286  1291  1292     1 
 1291  1292  1293     1 
 1291  1292  1294     1 
 1291  1292  1295     1 
 1293  1292  1294     1 
 1293  1292  1295     1 
 1294  1292  1295     1 
 1292  1295  1296     1 
 1295  1296  1297     1 
 1295  1296  1298     1 
 1295  1296  1299     1 
 1297  1296  1298     1 
 1297  1296  1299     1 
 1298  1296  1299     1 
 1296  1299  1300     1 
 1296  1299  1301     1 
 1296  1299  1319     1 
 1300  1299  1301     1 
 1300  1299  1319     1 
 1301  1299  1319     1 
 1299  1301  1302     1 
 1301  1302  1303     1 
 1301  1302  1304     1 
 1301  1302  1321     1 
 1303  1302  1304     1 
 1303  1302  1321     1 
 1304  1302  1321     1 
 1302  1304  1305     1 
 1302  1304  1318     1 
 1305  1304  1318     1 
 1304  1305  1306     1 
 1304  1305  1307     1 
 1306  1305  1307     1 
 1305  1307  1308     1 
 1307  1308  1309     1 
 1307  1308  1318     1 
 1309  1308  1318     1 
 1308  1309  1310     1 
 1308  1309  1311     1 
 1310  1309  1311     1 
 1309  1311  1312     1 
 1309  1311  1313     1 
 1312  1311  1313     1 
 1311  1313  1314     1 
 1311  1313  1317     1 
 1314  1313  1317     1 
 1313  1314  1315     1 
 1313  1314  1316     1 
 1315  1314  1316     1 
 1313  1317  1318     1 
 1304  1318  1308     1 
 1304  1318  1317     1 
 1308  1318  1317     1 
 1299  1319  1320     1 
 1299  1319  1321     1 
 1299  1319  1324     1 
 1320  1319  1321     1 
 1320  1319  1324     1 
 1321  1319  1324     1 
 1302  1321  1319     1 
 1302  1321  1322     1 
 1302  1321  1323     1 
 1319  1321  1322     1 
 1319  1321  1323     1 
 1322  1321  1323     1 
 1319  1324  1325     1 
 1324  1325  1326     1 
 1324  1325  1327     1 
 1324  1325  1328     1 
 1326  1325  1327     1 
 1326  1325  1328     1 
 1327  1325  1328     1 
 1325  1328  1329     1 
 1328  1329  1330     1 
 1328  1329  1331     1 
 1328  1329  1332     1 
 1330  1329  1331     1 
 1330  1329  1332     1 
 1331  1329  1332     1 
 1329  1332  1333     1 
 1329  1332  1334     1 
 1329  1332  1352     1 
 1333  1332  1334     1 
 1333  1332  1352     1 
 1334  1332  1352     1 
 1332  1334  1335     1 
 1334  1335  1336     1 
 1334  1335  1337     1 
 1334  1335  1354     1 
 1336  1335  1337     1 
 1336  1335  1354     1 
 1337  1335  1354     1 
 1335  1337  1338     1 
 1335  1337  1351     1 
 1338  1337  1351     1 
 1337  1338  1339     1 
 1337  1338  1340     1 
 1339  1338  1340     1 
 1338  1340  1341     1 
 1340  1341  1342     1 
 1340  1341  1351     1 
 1342  1341  1351     1 
 1341  1342  1343     1 
 1341  1342  1344     1 
 1343  1342  1344     1 
 1342  1344  1345     1 
 1342  1344  1346     1 
 1345  1344  1346     1 
 1344  1346  1347     1 
 1344  1346  1350     1 
 1347  1346  1350     1 
 1346  1347  1348     1 
 1346  1347  1349     1 
 1348  1347  1349     1 
 1346  1350  1351     1 
 1337  1351  1341     1 
 1337  1351  1350     1 
 1341  1351  1350     1 
 1332  1352  1353     1 
 1332  1352  1354     1 
 1332  1352  1357     1 
 1353  1352  1354     1 
 1353  1352  1357     1 
 1354  1352  1357     1 
 1335  1354  1352     1 
 1335  1354  1355     1 
 1335  1354  1356     1 
 1352  1354  1355     1 
 1352  1354  1356     1 
 1355  1354  1356     1 
 1352  1357  1358     1 
 1357  1358  1359     1 
 1357  1358  1360     1 
 1357  1358  1361     1 
 1359  1358  1360     1 
 1359  1358  1361     1 
 1360  1358  1361     1 
 1358  1361  1362     1 
 1361  1362  1363     1 
 1361  1362  1364     1 
 1361  1362  1365     1 
 1363  1362  1364     1 
 1363  1362  1365     1 
 1364  1362  1365     1 
 1362  1365  1366     1 
 1362  1365  1367     1 
 1362  1365  1382     1 
 1366  1365  1367     1 
 1366  1365  1382     1 
 1367  1365  1382     1 
 1365  1367  1368     1 
 1367  1368  1369     1 
 1367  1368  1370     1 
 1367  1368  1384     1 
 1369  1368  1370     1 
 1369  1368  1384     1 
 1370  1368  1384     1 
 1368  1370  1371     1 
 1368  1370  1380     1 
 1371  1370  1380     1 
 1370  1371  1372     1 
 1370  1371  1373     1 
 1372  1371  1373     1 
 1371  1373  1374     1 
 1371  1373  1375     1 
 1374  1373  1375     1 
 1373  1375  1376     1 
 1373  1375  1379     1 
 1376  1375  1379     1 
 1375  1376  1377     1 
 1375  1376  1378     1 
 1377  1376  1378     1 
 1375  1379  1380     1 
 1370  1380  1379     1 
 1370  1380  1381     1 
 1379  1380  1381     1 
 1365  1382  1383     1 
 1365  1382  1384     1 
 1365  1382  1387     1 
 1383  1382  1384     1 
 1383  1382  1387     1 
 1384  1382  1387     1 
 1368  1384  1382     1 
 1368  1384  1385     1 
 1368  1384  1386     1 
 1382  1384  1385     1 
 1382  1384  1386     1 
 1385  1384  1386     1 
 1382  1387  1388     1 
 1387  1388  1389     1 
 1387  1388  1390     1 
 1387  1388  1391     1 
 1389  1388  1390     1 
 1389  1388  1391     1 
 1390  1388  1391     1 
 1388  1391  1392     1 
 1391  1392  1393     1 
 1391  1392  1394     1 
 1391  1392  1395     1 
 1393  1392  1394     1 
 1393  1392  1395     1 
 1394  1392  1395     1 
 1392  1395  1396     1 
 1392  1395  1397     1 
 1392  1395  1414     1 
 1396  1395  1397     1 
 1396  1395  1414     1 
 1397  1395  1414     1 
 1395  1397  1398     1 
 1397  1398  1399     1 
 1397  1398  1400     1 
 1397  1398  1416     1 
 1399  1398  1400     1 
 1399  1398  1416     1 
 1400  1398  1416     1 
 1398  1400  1401     1 
 1398  1400  1413     1 
 1401  1400  1413     1 
 1400  1401  1402     1 
 1400  1401  1403     1 
 1402  1401  1403     1 
 1401  1403  1404     1 
 1403  1404  1405     1 
 1403  1404  1413     1 
 1405  1404  1413     1 
 1404  1405  1406     1 
 1404  1405  1409     1 
 1406  1405  1409     1 
 1405  1406  1407     1 
 1405  1406  1408     1 
 1407  1406  1408     1 
 1405  1409  1410     1 
 1409  1410  1411     1 
 1409  1410  1412     1 
 1411  1410  1412     1 
 1410  1412  1413     1 
 1400  1413  1404     1 
 1400  1413  1412     1 
 1404  1413  1412     1 
 1395  1414  1415     1 
 1395  1414  1416     1 
 1395  1414  1419     1 
 1415  1414  1416     1 
 1415  1414  1419     1 
 1416  1414  1419     1 
 1398  1416  1414     1 
 1398  1416  1417     1 
 1398  1416  1418     1 
 1414  1416  1417     1 
 1414  1416  1418     1 
 1417  1416  1418     1 
 1414  1419  1420     1 
 1419  1420  1421     1 
 1419  1420  1422     1 
 1419  1420  1423     1 
 1421  1420  1422     1 
 1421  1420  1423     1 
 1422  1420  1423     1 
 1420  1423  1424     1 
 1423  1424  1425     1 
 1423  1424  1426     1 
 1423  1424  1427     1 
 1425  1424  1426     1 
 1425  1424  1427     1 
 1426  1424  1427     1 
 1424  1427  1428     1 
 1424  1427  1429     1 
 1424  1427  1444     1 
 1428  1427  1429     1 
 1428  1427  1444     1 
 1429  1427  1444     1 
 1427  1429  1430     1 
 1429  1430  1431     1 
 1429  1430  1432     1 
 1429  1430  1446     1 
 1431  1430  1432     1 
 1431  1430  1446     1 
 1432  1430  1446     1 
 1430  1432  1433     1 
 1430  1432  1442     1 
 1433  1432  1442     1 
 1432  1433  1434     1 
 1432  1433  1435     1 
 1434  1433  1435     1 
 1433  1435  1436     1 
 1433  1435  1437     1 
 1436  1435  1437     1 
 1435  1437  1438     1 
 1435  1437  1441     1 
 1438  1437  1441     1 
 1437  1438  1439     1 
 1437  1438  1440     1 
 1439  1438  1440     1 
 1437  1441  1442     1 
 1432  1442  1441     1 
 1432  1442  1443     1 
 1441  1442  1443     1 
 1427  1444  1445     1 
 1427  1444  1446     1 
 1427  1444  1449     1 
 1445  1444  1446     1 
 1445  1444  1449     1 
 1446  1444  1449     1 
 1430  1446  1444     1 
 1430  1446  1447     1 
 1430  1446  1448     1 
 1444  1446  1447     1 
 1444  1446  1448     1 
 1447  1446  1448     1 
 1444  1449  1450     1 
 1449  1450  1451     1 
 1449  1450  1452     1 
 1449  1450  1453     1 
 1451  1450  1452     1 
 1451  1450  1453     1 
 1452  1450  1453     1 
 1450  1453  1454     1 
 1453  1454  1455     1 
 1453  1454  1456     1 
 1453  1454  1457     1 
 1455  1454  1456     1 
 1455  1454  1457     1 
 1456  1454  1457     1 
 1454  1457  1458     1 
 1454  1457  1459     1 
 1454  1457  1476     1 
 1458  1457  1459     1 
 1458  1457  1476     1 
 1459  1457  1476     1 
 1457  1459  1460     1 
 1459  1460  1461     1 
 1459  1460  1462     1 
 1459  1460  1478     1 
 1461  1460  1462     1 
 1461  1460  1478     1 
 1462  1460  1478     1 
 1460  1462  1463     1 
 1460  1462  1474     1 
 1463  1462  1474     1 
 1462  1463  1464     1 
 1462  1463  1465     1 
 1464  1463  1465     1 
 1463  1465  1466     1 
 1463  1465  1470     1 
 1466  1465  1470     1 
 1465  1466  1467     1 
 1465  1466  1468     1 
 1465  1466  1469     1 
 1467  1466  1468     1 
 1467  1466  1469     1 
 1468  1466  1469     1 
 1465  1470  1471     1 
 1465  1470  1472     1 
 1471  1470  1472     1 
 1470  1472  1473     1 
 1470  1472  1474     1 
 1473  1472  1474     1 
 1462  1474  1472     1 
 1462  1474  1475     1 
 1472  1474  1475     1 
 1457  1476  1477     1 
 1457  1476  1478     1 
 1457  1476  1481     1 
 1477  1476  1478     1 
 1477  1476  1481     1 
 1478  1476  1481     1 
 1460  1478  1476     1 
 1460  1478  1479     1 
 1460  1478  1480     1 
 1476  1478  1479     1 
 1476  1478  1480     1 
 1479  1478  1480     1 
 1476  1481  1482     1 
 1481  1482  1483     1 
 1481  1482  1484     1 
 1481  1482  1485     1 
 1483  1482  1484     1 
 1483  1482  1485     1 
 1484  1482  1485     1 
 1482  1485  1486     1 
 1485  1486  1487     1 
 1485  1486  1488     1 
 1485  1486  1489     1 
 1487  1486  1488     1 
 1487  1486  1489     1 
 1488  1486  1489     1 
 1486  1489  1490     1 
 1486  1489  1491     1 
 1486  1489  1509     1 
 1490  1489  1491     1 
 1490  1489  1509     1 
 1491  1489  1509     1 
 1489  1491  1492     1 
 1491  1492  1493     1 
 1491  1492  1494     1 
 1491  1492  1511     1 
 1493  1492  1494     1 
 1493  1492  1511     1 
 1494  1492  1511     1 
 1492  1494  1495     1 
 1492  1494  1508     1 
 1495  1494  1508     1 
 1494  1495  1496     1 
 1494  1495  1497     1 
 1496  1495  1497     1 
 1495  1497  1498     1 
 1497  1498  1499     1 
 1497  1498  1508     1 
 1499  1498  1508     1 
 1498  1499  1500     1 
 1498  1499  1501     1 
 1500  1499  1501     1 
 1499  1501  1502     1 
 1499  1501  1503     1 
 1502  1501  1503     1 
 1501  1503  1504     1 
 1501  1503  1507     1 
 1504  1503  1507     1 
 1503  1504  1505     1 
 1503  1504  1506     1 
 1505  1504  1506     1 
 1503  1507  1508     1 
 1494  1508  1498     1 
 1494  1508  1507     1 
 1498  1508  1507     1 
 1489  1509  1510     1 
 1489  1509  1511     1 
 1489  1509  1514     1 
 1510  1509  1511     1 
 1510  1509  1514     1 
 1511  1509  1514     1 
 1492  1511  1509     1 
 1492  1511  1512     1 
 1492  1511  1513     1 
 1509  1511  1512     1 
 1509  1511  1513     1 
 1512  1511  1513     1 
 1509  1514  1515     1 
 1514  1515  1516     1 
 1514  1515  1517     1 
 1514  1515  1518     1 
 1516  1515  1517     1 
 1516  1515  1518     1 
 1517  1515  1518     1 
 1515  1518  1519     1 
 1518  1519  1520     1 
 1518  1519  1521     1 
 1518  1519  1522     1 
 1520  1519  1521     1 
 1520  1519  1522     1 
 1521  1519  1522     1 
 1519  1522  1523     1 
 1519  1522  1524     1 
 1519  1522  1541     1 
 1523  1522  1524     1 
 1523  1522  1541     1 
 1524  1522  1541     1 
 1522  1524  1525     1 
 1524  1525  1526     1 
 1524  1525  1527     1 
 1524  1525  1543     1 
 1526  1525  1527     1 
 1526  1525  1543     1 
 1527  1525  1543     1 
 1525  1527  1528     1 
 1525  1527  1540     1 
 1528  1527  1540     1 
 1527  1528  1529     1 
 1527  1528  1530     1 
 1529  1528  1530     1 
 1528  1530  1531     1 
 1530  1531  1532     1 
 1530  1531  1540     1 
 1532  1531  1540     1 
 1531  1532  1533     1 
 1531  1532  1536     1 
 1533  1532  1536     1 
 1532  1533  1534     1 
 1532  1533  1535     1 
 1534  1533  1535     1 
 1532  1536  1537     1 
 1536  1537  1538     1 
 1536  1537  1539     1 
 1538  1537  1539     1 
 1537  1539  1540     1 
 1527  1540  1531     1 
 1527  1540  1539     1 
 1531  1540  1539     1 
 1522  1541  1542     1 
 1522  1541  1543     1 
 1522  1541  1546     1 
 1542  1541  1543     1 
 1542  1541  1546     1 
 1543  1541  1546     1 
 1525  1543  1541     1 
 1525  1543  1544     1 
 1525  1543  1545     1 
 1541  1543  1544     1 
 1541  1543  1545     1 
 1544  1543  1545     1 
 1541  1546  1547     1 
 1546  1547  1548     1 
 1546  1547  1549     1 
 1546  1547  1550     1 
 1548  1547  1549     1 
 1548  1547  1550     1 
 1549  1547  1550     1 
 1547  1550  1551     1 
 1550  1551  1552     1 
 1550  1551  1553     1 
 1550  1551  1554     1 
 1552  1551  1553     1 
 1552  1551  1554     1 
 1553  1551  1554     1 
 1551  1554  1555     1 
 1551  1554  1556     1 
 1551  1554  1573     1 
 1555  1554  1556     1 
 1555  1554  1573     1 
 1556  1554  1573     1 
 1554  1556  1557     1 
 1556  1557  1558     1 
 1556  1557  1559     1 
 1556  1557  1575     1 
 1558  1557  1559     1 
 1558  1557  1575     1 
 1559  1557  1575     1 
 1557  1559  1560     1 
 1557  1559  1572     1 
 1560  1559  1572     1 
 1559  1560  1561     1 
 1559  1560  1562     1 
 1561  1560  1562     1 
 1560  1562  1563     1 
 1562  1563  1564     1 
 1562  1563  1572     1 
 1564  1563  1572     1 
 1563  1564  1565     1 
 1563  1564  1568     1 
 1565  1564  1568     1 
 1564  1565  1566     1 
 1564  1565  1567     1 
 1566  1565  1567     1 
 1564  1568  1569     1 
 1568  1569  1570     1 
 1568  1569  1571     1 
 1570  1569  1571     1 
 1569  1571  1572     1 
 1559  1572  1563     1 
 1559  1572  1571     1 
 1563  1572  1571     1 
 1554  1573  1574     1 
 1554  1573  1575     1 
 1554  1573  1578     1 
 1574  1573  1575     1 
 1574  1573  1578     1 
 1575  1573  1578     1 
 1557  1575  1573     1 
 1557  1575  1576     1 
 1557  1575  1577     1 
 1573  1575  1576     1 
 1573  1575  1577     1 
 1576  1575  1577     1 
 1573  1578  1579     1 
 1578  1579  1580     1 
 1578  1579  1581     1 
 1578  1579  1582     1 
 1580  1579  1581     1 
 1580  1579  1582     1 
 1581  1579  1582     1 
 1579  1582  1583     1 
 1582  1583  1584     1 
 1582  1583  1585     1 
 1582  1583  1586     1 
 1584  1583  1585     1 
 1584  1583  1586     1 
 1585  1583  1586     1 
 1583  1586  1587     1 
 1583  1586  1588     1 
 1583  1586  1606     1 
 1587  1586  1588     1 
 1587  1586  1606     1 
 1588  1586  1606     1 
 1586  1588  1589     1 
 1588  1589  1590     1 
 1588  1589  1591     1 
 1588  1589  1608     1 
 1590  1589  1591     1 
 1590  1589  1608     1 
 1591  1589  1608     1 
 1589  1591  1592     1 
 1589  1591  1605     1 
 1592  1591  1605     1 
 1591  1592  1593     1 
 1591  1592  1594     1 
 1593  1592  1594     1 
 1592  1594  1595     1 
 1594  1595  1596     1 
 1594  1595  1605     1 
 1596  1595  1605     1 
 1595  1596  1597     1 
 1595  1596  1598     1 
 1597  1596  1598     1 
 1596  1598  1599     1 
 1596  1598  1600     1 
 1599  1598  1600     1 
 1598  1600  1601     1 
 1598  1600  1604     1 
 1601  1600  1604     1 
 1600  1601  1602     1 
 1600  1601  1603     1 
 1602  1601  1603     1 
 1600  1604  1605     1 
 1591  1605  1595     1 
 1591  1605  1604     1 
 1595  1605  1604     1 
 1586  1606  1607     1 
 1586  1606  1608     1 
 1586  1606  1611     1 
 1607  1606  1608     1 
 1607  1606  1611     1 
 1608  1606  1611     1 
 1589  1608  1606     1 
 1589  1608  1609     1 
 1589  1608  1610     1 
 1606  1608  1609     1 
 1606  1608  1610     1 
 1609  1608  1610     1 
 1606  1611  1612     1 
 1611  1612  1613     1 
 1611  1612  1614     1 
 1611  1612  1615     1 
 1613  1612  1614     1 
 1613  1612  1615     1 
 1614  1612  1615     1 
 1612  1615  1616     1 
 1615  1616  1617     1 
 1615  1616  1618     1 
 1615  1616  1619     1 
 1617  1616  1618     1 
 1617  1616  1619     1 
 1618  1616  1619     1 
 1616  1619  1620     1 
 1616  1619  1621     1 
 1616  1619  1639     1 
 1620  1619  1621     1 
 1620  1619  1639     1 
 1621  1619  1639     1 
 1619  1621  1622     1 
 1621  1622  1623     1 
 1621  1622  1624     1 
 1621  1622  1641     1 
 1623  1622  1624     1 
 1623  1622  1641     1 
 1624  1622  1641     1 
 1622  1624  1625     1 
 1622  1624  1638     1 
 1625  1624  1638     1 
 1624  1625  1626     1 
 1624  1625  1627     1 
 1626  1625  1627     1 
 1625  1627  1628     1 
 1627  1628  1629     1 
 1627  1628  1638     1 
 1629  1628  1638     1 
 1628  1629  1630     1 
 1628  1629  1631     1 
 1630  1629  1631     1 
 1629  1631  1632     1 
 1629  1631  1633     1 
 1632  1631  1633     1 
 1631  1633  1634     1 
 1631  1633  1637     1 
 1634  1633  1637     1 
 1633  1634  1635     1 
 1633  1634  1636     1 
 1635  1634  1636     1 
 1633  1637  1638     1 
 1624  1638  1628     1 
 1624  1638  1637     1 
 1628  1638  1637     1 
 1619  1639  1640     1 
 1619  1639  1641     1 
 1619  1639  1644     1 
 1640  1639  1641     1 
 1640  1639  1644     1 
 1641  1639  1644     1 
 1622  1641  1639     1 
 1622  1641  1642     1 
 1622  1641  1643     1 
 1639  1641  1642     1 
 1639  1641  1643     1 
 1642  1641  1643     1 
 1639  1644  1645     1 
 1644  1645  1646     1 
 1644  1645  1647     1 
 1644  1645  1648     1 
 1646  1645  1647     1 
 1646  1645  1648     1 
 1647  1645  1648     1 
 1645  1648  1649     1 
 1648  1649  1650     1 
 1648  1649  1651     1 
 1648  1649  1652     1 
 1650  1649  1651     1 
 1650  1649  1652     1 
 1651  1649  1652     1 
 1649  1652  1653     1 
 1649  1652  1654     1 
 1649  1652  1669     1 
 1653  1652  1654     1 
 1653  1652  1669     1 
 1654  1652  1669     1 
 1652  1654  1655     1 
 1654  1655  1656     1 
 1654  1655  1657     1 
 1654  1655  1671     1 
 1656  1655  1657     1 
 1656  1655  1671     1 
 1657  1655  1671     1 
 1655  1657  1658     1 
 1655  1657  1667     1 
 1658  1657  1667     1 
 1657  1658  1659     1 
 1657  1658  1660     1 
 1659  1658  1660     1 
 1658  1660  1661     1 
 1658  1660  1662     1 
 1661  1660  1662     1 
 1660  1662  1663     1 
 1660  1662  1666     1 
 1663  1662  1666     1 
 1662  1663  1664     1 
 1662  1663  1665     1 
 1664  1663  1665     1 
 1662  1666  1667     1 
 1657  1667  1666     1 
 1657  1667  1668     1 
 1666  1667  1668     1 
 1652  1669  1670     1 
 1652  1669  1671     1 
 1652  1669  1674     1 
 1670  1669  1671     1 
 1670  1669  1674     1 
 1671  1669  1674     1 
 1655  1671  1669     1 
 1655  1671  1672     1 
 1655  1671  1673     1 
 1669  1671  1672     1 
 1669  1671  1673     1 
 1672  1671  1673     1 
 1669  1674  1675     1 
 1674  1675  1676     1 
 1674  1675  1677     1 
 1674  1675  1678     1 
 1676  1675  1677     1 
 1676  1675  1678     1 
 1677  1675  1678     1 
 1675  1678  1679     1 
 1678  1679  1680     1 
 1678  1679  1681     1 
 1678  1679  1682     1 
 1680  1679  1681     1 
 1680  1679  1682     1 
 1681  1679  1682     1 
 1679  1682  1683     1 
 1679  1682  1684     1 
 1679  1682  1702     1 
 1683  1682  1684     1 
 1683  1682  1702     1 
 1684  1682  1702     1 
 1682  1684  1685     1 
 1684  1685  1686     1 
 1684  1685  1687     1 
 1684  1685  1704     1 
 1686  1685  1687     1 
 1686  1685  1704     1 
 1687  1685  1704     1 
 1685  1687  1688     1 
 1685  1687  1701     1 
 1688  1687  1701     1 
 1687  1688  1689     1 
 1687  1688  1690     1 
 1689  1688  1690     1 
 1688  1690  1691     1 
 1690  1691  1692     1 
 1690  1691  1701     1 
 1692  1691  1701     1 
 1691  1692  1693     1 
 1691  1692  1694     1 
 1693  1692  1694     1 
 1692  1694  1695     1 
 1692  1694  1696     1 
 1695  1694  1696     1 
 1694  1696  1697     1 
 1694  1696  1700     1 
 1697  1696  1700     1 
 1696  1697  1698     1 
 1696  1697  1699     1 
 1698  1697  1699     1 
 1696  1700  1701     1 
 1687  1701  1691     1 
 1687  1701  1700     1 
 1691  1701  1700     1 
 1682  1702  1703     1 
 1682  1702  1704     1 
 1682  1702  1707     1 
 1703  1702  1704     1 
 1703  1702  1707     1 
 1704  1702  1707     1 
 1685  1704  1702     1 
 1685  1704  1705     1 
 1685  1704  1706     1 
 1702  1704  1705     1 
 1702  1704  1706     1 
 1705  1704  1706     1 
 1702  1707  1708     1 
 1707  1708  1709     1 
 1707  1708  1710     1 
 1707  1708  1711     1 
 1709  1708  1710     1 
 1709  1708  1711     1 
 1710  1708  1711     1 
 1708  1711  1712     1 
 1711  1712  1713     1 
 1711  1712  1714     1 
 1711  1712  1715     1 
 1713  1712  1714     1 
 1713  1712  1715     1 
 1714  1712  1715     1 
 1712  1715  1716     1 
 1712  1715  1717     1 
 1712  1715  1735     1 
 1716  1715  1717     1 
 1716  1715  1735     1 
 1717  1715  1735     1 
 1715  1717  1718     1 
 1717  1718  1719     1 
 1717  1718  1720     1 
 1717  1718  1737     1 
 1719  1718  1720     1 
 1719  1718  1737     1 
 1720  1718  1737     1 
 1718  1720  1721     1 
 1718  1720  1734     1 
 1721  1720  1734     1 
 1720  1721  1722     1 
 1720  1721  1723     1 
 1722  1721  1723     1 
 1721  1723  1724     1 
 1723  1724  1725     1 
 1723  1724  1734     1 
 1725  1724  1734     1 
 1724  1725  1726     1 
 1724  1725  1727     1 
 1726  1725  1727     1 
 1725  1727  1728     1 
 1725  1727  1729     1 
 1728  1727  1729     1 
 1727  1729  1730     1 
 1727  1729  1733     1 
 1730  1729  1733     1 
 1729  1730  1731     1 
 1729  1730  1732     1 
 1731  1730  1732     1 
 1729  1733  1734     1 
 1720  1734  1724     1 
 1720  1734  1733     1 
 1724  1734  1733     1 
 1715  1735  1736     1 
 1715  1735  1737     1 
 1715  1735  1740     1 
 1736  1735  1737     1 
 1736  1735  1740     1 
 1737  1735  1740     1 
 1718  1737  1735     1 
 1718  1737  1738     1 
 1718  1737  1739     1 
 1735  1737  1738     1 
 1735  1737  1739     1 
 1738  1737  1739     1 
 1735  1740  1741     1 
 1740  1741  1742     1 
 1740  1741  1743     1 
 1740  1741  1744     1 
 1742  1741  1743     1 
 1742  1741  1744     1 
 1743  1741  1744     1 
 1741  1744  1745     1 
 1744  1745  1746     1 
 1744  1745  1747     1 
 1744  1745  1748     1 
 1746  1745  1747     1 
 1746  1745  1748     1 
 1747  1745  1748     1 
 1745  1748  1749     1 
 1745  1748  1750     1 
 1745  1748  1765     1 
 1749  1748  1750     1 
 1749  1748  1765     1 
 1750  1748  1765     1 
 1748  1750  1751     1 
 1750  1751  1752     1 
 1750  1751  1753     1 
 1750  1751  1767     1 
 1752  1751  1753     1 
 1752  1751  1767     1 
 1753  1751  1767     1 
 1751  1753  1754     1 
 1751  1753  1763     1 
 1754  1753  1763     1 
 1753  1754  1755     1 
 1753  1754  1756     1 
 1755  1754  1756     1 
 1754  1756  1757     1 
 1754  1756  1758     1 
 1757  1756  1758     1 
 1756  1758  1759     1 
 1756  1758  1762     1 
 1759  1758  1762     1 
 1758  1759  1760     1 
 1758  1759  1761     1 
 1760  1759  1761     1 
 1758  1762  1763     1 
 1753  1763  1762     1 
 1753  1763  1764     1 
 1762  1763  1764     1 
 1748  1765  1766     1 
 1748  1765  1767     1 
 1748  1765  1770     1 
 1766  1765  1767     1 
 1766  1765  1770     1 
 1767  1765  1770     1 
 1751  1767  1765     1 
 1751  1767  1768     1 
 1751  1767  1769     1 
 1765  1767  1768     1 
 1765  1767  1769     1 
 1768  1767  1769     1 
 1765  1770  1771     1 
 1770  1771  1772     1 
 1770  1771  1773     1 
 1770  1771  1774     1 
 1772  1771  1773     1 
 1772  1771  1774     1 
 1773  1771  1774     1 
 1771  1774  1775     1 
 1774  1775  1776     1 
 1774  1775  1777     1 
 1774  1775  1778     1 
 1776  1775  1777     1 
 1776  1775  1778     1 
 1777  1775  1778     1 
 1775  1778  1779     1 
 1775  1778  1780     1 
 1775  1778  1798     1 
 1779  1778  1780     1 
 1779  1778  1798     1 
 1780  1778  1798     1 
 1778  1780  1781     1 
 1780  1781  1782     1 
 1780  1781  1783     1 
 1780  1781  1800     1 
 1782  1781  1783     1 
 1782  1781  1800     1 
 1783  1781  1800     1 
 1781  1783  1784     1 
 1781  1783  1797     1 
 1784  1783  1797     1 
 1783  1784  1785     1 
 1783  1784  1786     1 
 1785  1784  1786     1 
 1784  1786  1787     1 
 1786  1787  1788     1 
 1786  1787  1797     1 
 1788  1787  1797     1 
 1787  1788  1789     1 
 1787  1788  1790     1 
 1789  1788  1790     1 
 1788  1790  1791     1 
 1788  1790  1792     1 
 1791  1790  1792     1 
 1790  1792  1793     1 
 1790  1792  1796     1 
 1793  1792  1796     1 
 1792  1793  1794     1 
 1792  1793  1795     1 
 1794  1793  1795     1 
 1792  1796  1797     1 
 1783  1797  1787     1 
 1783  1797  1796     1 
 1787  1797  1796     1 
 1778  1798  1799     1 
 1778  1798  1800     1 
 1778  1798  1803     1 
 1799  1798  1800     1 
 1799  1798  1803     1 
 1800  1798  1803     1 
 1781  1800  1798     1 
 1781  1800  1801     1 
 1781  1800  1802     1 
 1798  1800  1801     1 
 1798  1800  1802     1 
 1801  1800  1802     1 
 1798  1803  1804     1 
 1803  1804  1805     1 
 1803  1804  1806     1 
 1803  1804  1807     1 
 1805  1804  1806     1 
 1805  1804  1807     1 
 1806  1804  1807     1 
 1804  1807  1808     1 
 1807  1808  1809     1 
 1807  1808  1810     1 
 1807  1808  1811     1 
 1809  1808  1810     1 
 1809  1808  1811     1 
 1810  1808  1811     1 
 1808  1811  1812     1 
 1808  1811  1813     1 
 1808  1811  1831     1 
 1812  1811  1813     1 
 1812  1811  1831     1 
 1813  1811  1831     1 
 1811  1813  1814     1 
 1813  1814  1815     1 
 1813  1814  1816     1 
 1813  1814  1833     1 
 1815  1814  1816     1 
 1815  1814  1833     1 
 1816  1814  1833     1 
 1814  1816  1817     1 
 1814  1816  1830     1 
 1817  1816  1830     1 
 1816  1817  1818     1 
 1816  1817  1819     1 
 1818  1817  1819     1 
 1817  1819  1820     1 
 1819  1820  1821     1 
 1819  1820  1830     1 
 1821  1820  1830     1 
 1820  1821  1822     1 
 1820  1821  1823     1 
 1822  1821  1823     1 
 1821  1823  1824     1 
 1821  1823  1825     1 
 1824  1823  1825     1 
 1823  1825  1826     1 
 1823  1825  1829     1 
 1826  1825  1829     1 
 1825  1826  1827     1 
 1825  1826  1828     1 
 1827  1826  1828     1 
 1825  1829  1830     1 
 1816  1830  1820     1 
 1816  1830  1829     1 
 1820  1830  1829     1 
 1811  1831  1832     1 
 1811  1831  1833     1 
 1811  1831  1836     1 
 1832  1831  1833     1 
 1832  1831  1836     1 
 1833  1831  1836     1 
 1814  1833  1831     1 
 1814  1833  1834     1 
 1814  1833  1835     1 
 1831  1833  1834     1 
 1831  1833  1835     1 
 1834  1833  1835     1 
 1831  1836  1837     1 
 1836  1837  1838     1 
 1836  1837  1839     1 
 1836  1837  1840     1 
 1838  1837  1839     1 
 1838  1837  1840     1 
 1839  1837  1840     1 
 1837  1840  1841     1 
 1840  1841  1842     1 
 1840  1841  1843     1 
 1840  1841  1844     1 
 1842  1841  1843     1 
 1842  1841  1844     1 
 1843  1841  1844     1 
 1841  1844  1845     1 
 1841  1844  1846     1 
 1841  1844  1861     1 
 1845  1844  1846     1 
 1845  1844  1861     1 
 1846  1844  1861     1 
 1844  1846  1847     1 
 1846  1847  1848     1 
 1846  1847  1849     1 
 1846  1847  1863     1 
 1848  1847  1849     1 
 1848  1847  1863     1 
 1849  1847  1863     1 
 1847  1849  1850     1 
 1847  1849  1859     1 
 1850  1849  1859     1 
 1849  1850  1851     1 
 1849  1850  1852     1 
 1851  1850  1852     1 
 1850  1852  1853     1 
 1850  1852  1854     1 
 1853  1852  1854     1 
 1852  1854  1855     1 
 1852  1854  1858     1 
 1855  1854  1858     1 
 1854  1855  1856     1 
 1854  1855  1857     1 
 1856  1855  1857     1 
 1854  1858  1859     1 
 1849  1859  1858     1 
 1849  1859  1860     1 
 1858  1859  1860     1 
 1844  1861  1862     1 
 1844  1861  1863     1 
 1844  1861  1866     1 
 1862  1861  1863     1 
 1862  1861  1866     1 
 1863  1861  1866     1 
 1847  1863  1861     1 
 1847  1863  1864     1 
 1847  1863  1865     1 
 1861  1863  1864     1 
 1861  1863  1865     1 
 1864  1863  1865     1 
 1861  1866  1867     1 
 1866  1867  1868     1 
 1866  1867  1869     1 
 1866  1867  1870     1 
 1868  1867  1869     1 
 1868  1867  1870     1 
 1869  1867  1870     1 
 1867  1870  1871     1 
 1870  1871  1872     1 
 1870  1871  1873     1 
 1870  1871  1874     1 
 1872  1871  1873     1 
 1872  1871  1874     1 
 1873  1871  1874     1 
 1871  1874  1875     1 
 1871  1874  1876     1 
 1871  1874  1894     1 
 1875  1874  1876     1 
 1875  1874  1894     1 
 1876  1874  1894     1 
 1874  1876  1877     1 
 1876  1877  1878     1 
 1876  1877  1879     1 
 1876  1877  1896     1 
 1878  1877  1879     1 
 1878  1877  1896     1 
 1879  1877  1896     1 
 1877  1879  1880     1 
 1877  1879  1893     1 
 1880  1879  1893     1 
 1879  1880  1881     1 
 1879  1880  1882     1 
 1881  1880  1882     1 
 1880  1882  1883     1 
 1882  1883  1884     1 
 1882  1883  1893     1 
 1884  1883  1893     1 
 1883  1884  1885     1 
 1883  1884  1886     1 
 1885  1884  1886     1 
 1884  1886  1887     1 
 1884  1886  1888     1 
 1887  1886  1888     1 
 1886  1888  1889     1 
 1886  1888  1892     1 
 1889  1888  1892     1 
 1888  1889  1890     1 
 1888  1889  1891     1 
 1890  1889  1891     1 
 1888  1892  1893     1 
 1879  1893  1883     1 
 1879  1893  1892     1 
 1883  1893  1892     1 
 1874  1894  1895     1 
 1874  1894  1896     1 
 1874  1894  1899     1 
 1895  1894  1896     1 
 1895  1894  1899     1 
 1896  1894  1899     1 
 1877  1896  1894     1 
 1877  1896  1897     1 
 1877  1896  1898     1 
 1894  1896  1897     1 
 1894  1896  1898     1 
 1897  1896  1898     1 
 1894  1899  1900     1 
 1899  1900  1901     1 
 1899  1900  1902     1 
 1899  1900  1903     1 
 1901  1900  1902     1 
 1901  1900  1903     1 
 1902  1900  1903     1 
 1900  1903  1904     1 
 1903  1904  1905     1 
 1903  1904  1906     1 
 1903  1904  1907     1 
 1905  1904  1906     1 
 1905  1904  1907     1 
 1906  1904  1907     1 
 1904  1907  1908     1 
 1904  1907  1909     1 
 1904  1907  1927     1 
 1908  1907  1909     1 
 1908  1907  1927     1 
 1909  1907  1927     1 
 1907  1909  1910     1 
 1909  1910  1911     1 
 1909  1910  1912     1 
 1909  1910  1929     1 
 1911  1910  1912     1 
 1911  1910  1929     1 
 1912  1910  1929     1 
 1910  1912  1913     1 
 1910  1912  1926     1 
 1913  1912  1926     1 
 1912  1913  1914     1 
 1912  1913  1915     1 
 1914  1913  1915     1 
 1913  1915  1916     1 
 1915  1916  1917     1 
 1915  1916  1926     1 
 1917  1916  1926     1 
 1916  1917  1918     1 
 1916  1917  1919     1 
 1918  1917  1919     1 
 1917  1919  1920     1 
 1917  1919  1921     1 
 1920  1919  1921     1 
 1919  1921  1922     1 
 1919  1921  1925     1 
 1922  1921  1925     1 
 1921  1922  1923     1 
 1921  1922  1924     1 
 1923  1922  1924     1 
 1921  1925  1926     1 
 1912  1926  1916     1 
 1912  1926  1925     1 
 1916  1926  1925     1 
 1907  1927  1928     1 
 1907  1927  1929     1 
 1907  1927  1932     1 
 1928  1927  1929     1 
 1928  1927  1932     1 
 1929  1927  1932     1 
 1910  1929  1927     1 
 1910  1929  1930     1 
 1910  1929  1931     1 
 1927  1929  1930     1 
 1927  1929  1931     1 
 1930  1929  1931     1 
 1927  1932  1933     1 
 1932  1933  1934     1 
 1932  1933  1935     1 
 1932  1933  1936     1 
 1934  1933  1935     1 
 1934  1933  1936     1 
 1935  1933  1936     1 
 1933  1936  1937     1 
 1936  1937  1938     1 
 1936  1937  1939     1 
 1936  1937  1940     1 
 1938  1937  1939     1 
 1938  1937  1940     1 
 1939  1937  1940     1 
 1937  1940  1941     1 
 1937  1940  1942     1 
 1937  1940  1960     1 
 1941  1940  1942     1 
 1941  1940  1960     1 
 1942  1940  1960     1 
 1940  1942  1943     1 
 1942  1943  1944     1 
 1942  1943  1945     1 
 1942  1943  1962     1 
 1944  1943  1945     1 
 1944  1943  1962     1 
 1945  1943  1962     1 
 1943  1945  1946     1 
 1943  1945  1959     1 
 1946  1945  1959     1 
 1945  1946  1947     1 
 1945  1946  1948     1 
 1947  1946  1948     1 
 1946  1948  1949     1 
 1948  1949  1950     1 
 1948  1949  1959     1 
 1950  1949  1959     1 
 1949  1950  1951     1 
 1949  1950  1952     1 
 1951  1950  1952     1 
 1950  1952  1953     1 
 1950  1952  1954     1 
 1953  1952  1954     1 
 1952  1954  1955     1 
 1952  1954  1958     1 
 1955  1954  1958     1 
 1954  1955  1956     1 
 1954  1955  1957     1 
 1956  1955  1957     1 
 1954  1958  1959     1 
 1945  1959  1949     1 
 1945  1959  1958     1 
 1949  1959  1958     1 
 1940  1960  1961     1 
 1940  1960  1962     1 
 1940  1960  1965     1 
 1961  1960  1962     1 
 1961  1960  1965     1 
 1962  1960  1965     1 
 1943  1962  1960     1 
 1943  1962  1963     1 
 1943  1962  1964     1 
 1960  1962  1963     1 
 1960  1962  1964     1 
 1963  1962  1964     1 
 1960  1965  1966     1 
 1965  1966  1967     1 
 1965  1966  1968     1 
 1965  1966  1969     1 
 1967  1966  1968     1 
 1967  1966  1969     1 
 1968  1966  1969     1 
 1966  1969  1970     1 
 1969  1970  1971     1 
 1969  1970  1972     1 
 1969  1970  1973     1 
 1971  1970  1972     1 
 1971  1970  1973     1 
 1972  1970  1973     1 
 1970  1973  1974     1 
 1970  1973  1975     1 
 1970  1973  1993     1 
 1974  1973  1975     1 
 1974  1973  1993     1 
 1975  1973  1993     1 
 1973  1975  1976     1 
 1975  1976  1977     1 
 1975  1976  1978     1 
 1975  1976  1995     1 
 1977  1976  1978     1 
 1977  1976  1995     1 
 1978  1976  1995     1 
 1976  1978  1979     1 
 1976  1978  1992     1 
 1979  1978  1992     1 
 1978  1979  1980     1 
 1978  1979  1981     1 
 1980  1979  1981     1 
 1979  1981  1982     1 
 1981  1982  1983     1 
 1981  1982  1992     1 
 1983  1982  1992     1 
 1982  1983  1984     1 
 1982  1983  1985     1 
 1984  1983  1985     1 
 1983  1985  1986     1 
 1983  1985  1987     1 
 1986  1985  1987     1 
 1985  1987  1988     1 
 1985  1987  1991     1 
 1988  1987  1991     1 
 1987  1988  1989     1 
 1987  1988  1990     1 
 1989  1988  1990     1 
 1987  1991  1992     1 
 1978  1992  1982     1 
 1978  1992  1991     1 
 1982  1992  1991     1 
 1973  1993  1994     1 
 1973  1993  1995     1 
 1973  1993  1998     1 
 1994  1993  1995     1 
 1994  1993  1998     1 
 1995  1993  1998     1 
 1976  1995  1993     1 
 1976  1995  1996     1 
 1976  1995  1997     1 
 1993  1995  1996     1 
 1993  1995  1997     1 
 1996  1995  1997     1 
 1993  1998  1999     1 
 1998  1999  2000     1 
 1998  1999  2001     1 
 1998  1999  2002     1 
 2000  1999  2001     1 
 2000  1999  2002     1 
 2001  1999  2002     1 
 1999  2002  2003     1 
 2002  2003  2004     1 
 2002  2003  2005     1 
 2002  2003  2006     1 
 2004  2003  2005     1 
 2004  2003  2006     1 
 2005  2003  2006     1 
 2003  2006  2007     1 
 2003  2006  2008     1 
 2003  2006  2023     1 
 2007  2006  2008     1 
 2007  2006  2023     1 
 2008  2006  2023     1 
 2006  2008  2009     1 
 2008  2009  2010     1 
 2008  2009  2011     1 
 2008  2009  2025     1 
 2010  2009  2011     1 
 2010  2009  2025     1 
 2011  2009  2025     1 
 2009  2011  2012     1 
 2009  2011  2021     1 
 2012  2011  2021     1 
 2011  2012  2013     1 
 2011  2012  2014     1 
 2013  2012  2014     1 
 2012  2014  2015     1 
 2012  2014  2016     1 
 2015  2014  2016     1 
 2014  2016  2017     1 
 2014  2016  2020     1 
 2017  2016  2020     1 
 2016  2017  2018     1 
 2016  2017  2019     1 
 2018  2017  2019     1 
 2016  2020  2021     1 
 2011  2021  2020     1 
 2011  2021  2022     1 
 2020  2021  2022     1 
 2006  2023  2024     1 
 2006  2023  2025     1 
 2006  2023  2028     1 
 2024  2023  2025     1 
 2024  2023  2028     1 
 2025  2023  2028     1 
 2009  2025  2023     1 
 2009  2025  2026     1 
 2009  2025  2027     1 
 2023  2025  2026     1 
 2023  2025  2027     1 
 2026  2025  2027     1 
 2023  2028  2029     1 
 2028  2029  2030     1 
 2028  2029  2031     1 
 2028  2029  2032     1 
 2030  2029  2031     1 
 2030  2029  2032     1 
 2031  2029  2032     1 
 2029  2032  2033     1 
 2032  2033  2034     1 
 2032  2033  2035     1 
 2032  2033  2036     1 
 2034  2033  2035     1 
 2034  2033  2036     1 
 2035  2033  2036     1 
 2033  2036  2037     1 
 2033  2036  2038     1 
 2033  2036  2053     1 
 2037  2036  2038     1 
 2037  2036  2053     1 
 2038  2036  2053     1 
 2036  2038  2039     1 
 2038  2039  2040     1 
 2038  2039  2041     1 
 2038  2039  2055     1 
 2040  2039  2041     1 
 2040  2039  2055     1 
 2041  2039  2055     1 
 2039  2041  2042     1 
 2039  2041  2051     1 
 2042  2041  2051     1 
 2041  2042  2043     1 
 2041  2042  2044     1 
 2043  2042  2044     1 
 2042  2044  2045     1 
 2042  2044  2046     1 
 2045  2044  2046     1 
 2044  2046  2047     1 
 2044  2046  2050     1 
 2047  2046  2050     1 
 2046  2047  2048     1 
 2046  2047  2049     1 
 2048  2047  2049     1 
 2046  2050  2051     1 
 2041  2051  2050     1 
 2041  2051  2052     1 
 2050  2051  2052     1 
 2036  2053  2054     1 
 2036  2053  2055     1 
 2036  2053  2058     1 
 2054  2053  2055     1 
 2054  2053  2058     1 
 2055  2053  2058     1 
 2039  2055  2053     1 
 2039  2055  2056     1 
 2039  2055  2057     1 
 2053  2055  2056     1 
 2053  2055  2057     1 
 2056  2055  2057     1 
 2053  2058  2059     1 
 2058  2059  2060     1 
 2058  2059  2061     1 
 2058  2059  2062     1 
 2060  2059  2061     1 
 2060  2059  2062     1 
 2061  2059  2062     1 
 2059  2062  2063     1 
 2062  2063  2064     1 
 2062  2063  2065     1 
 2062  2063  2066     1 
 2064  2063  2065     1 
 2064  2063  2066     1 
 2065  2063  2066     1 
 2063  2066  2067     1 
 2063  2066  2068     1 
 2063  2066  2085     1 
 2067  2066  2068     1 
 2067  2066  2085     1 
 2068  2066  2085     1 
 2066  2068  2069     1 
 2068  2069  2070     1 
 2068  2069  2071     1 
 2068  2069  2087     1 
 2070  2069  2071     1 
 2070  2069  2087     1 
 2071  2069  2087     1 
 2069  2071  2072     1 
 2069  2071  2084     1 
 2072  2071  2084     1 
 2071  2072  2073     1 
 2071  2072  2074     1 
 2073  2072  2074     1 
 2072  2074  2075     1 
 2074  2075  2076     1 
 2074  2075  2084     1 
 2076  2075  2084     1 
 2075  2076  2077     1 
 2075  2076  2080     1 
 2077  2076  2080     1 
 2076  2077  2078     1 
 2076  2077  2079     1 
 2078  2077  2079     1 
 2076  2080  2081     1 
 2080  2081  2082     1 
 2080  2081  2083     1 
 2082  2081  2083     1 
 2081  2083  2084     1 
 2071  2084  2075     1 
 2071  2084  2083     1 
 2075  2084  2083     1 
 2066  2085  2086     1 
 2066  2085  2087     1 
 2066  2085  2090     1 
 2086  2085  2087     1 
 2086  2085  2090     1 
 2087  2085  2090     1 
 2069  2087  2085     1 
 2069  2087  2088     1 
 2069  2087  2089     1 
 2085  2087  2088     1 
 2085  2087  2089     1 
 2088  2087  2089     1 
 2085  2090  2091     1 
 2090  2091  2092     1 
 2090  2091  2093     1 
 2090  2091  2094     1 
 2092  2091  2093     1 
 2092  2091  2094     1 
 2093  2091  2094     1 
 2091  2094  2095     1 
 2094  2095  2096     1 
 2094  2095  2097     1 
 2094  2095  2098     1 
 2096  2095  2097     1 
 2096  2095  2098     1 
 2097  2095  2098     1 
 2095  2098  2099     1 
 2095  2098  2100     1 
 2095  2098  2118     1 
 2099  2098  2100     1 
 2099  2098  2118     1 
 2100  2098  2118     1 
 2098  2100  2101     1 
 2100  2101  2102     1 
 2100  2101  2103     1 
 2100  2101  2120     1 
 2102  2101  2103     1 
 2102  2101  2120     1 
 2103  2101  2120     1 
 2101  2103  2104     1 
 2101  2103  2117     1 
 2104  2103  2117     1 
 2103  2104  2105     1 
 2103  2104  2106     1 
 2105  2104  2106     1 
 2104  2106  2107     1 
 2106  2107  2108     1 
 2106  2107  2117     1 
 2108  2107  2117     1 
 2107  2108  2109     1 
 2107  2108  2110     1 
 2109  2108  2110     1 
 2108  2110  2111     1 
 2108  2110  2112     1 
 2111  2110  2112     1 
 2110  2112  2113     1 
 2110  2112  2116     1 
 2113  2112  2116     1 
 2112  2113  2114     1 
 2112  2113  2115     1 
 2114  2113  2115     1 
 2112  2116  2117     1 
 2103  2117  2107     1 
 2103  2117  2116     1 
 2107  2117  2116     1 
 2098  2118  2119     1 
 2098  2118  2120     1 
 2098  2118  2123     1 
 2119  2118  2120     1 
 2119  2118  2123     1 
 2120  2118  2123     1 
 2101  2120  2118     1 
 2101  2120  2121     1 
 2101  2120  2122     1 
 2118  2120  2121     1 
 2118  2120  2122     1 
 2121  2120  2122     1 
 2118  2123  2124     1 
 2123  2124  2125     1 
 2123  2124  2126     1 
 2123  2124  2127     1 
 2125  2124  2126     1 
 2125  2124  2127     1 
 2126  2124  2127     1 
 2124  2127  2128     1 
 2127  2128  2129     1 
 2127  2128  2130     1 
 2127  2128  2131     1 
 2129  2128  2130     1 
 2129  2128  2131     1 
 2130  2128  2131     1 
 2128  2131  2132     1 
 2128  2131  2133     1 
 2128  2131  2150     1 
 2132  2131  2133     1 
 2132  2131  2150     1 
 2133  2131  2150     1 
 2131  2133  2134     1 
 2133  2134  2135     1 
 2133  2134  2136     1 
 2133  2134  2152     1 
 2135  2134  2136     1 
 2135  2134  2152     1 
 2136  2134  2152     1 
 2134  2136  2137     1 
 2134  2136  2149     1 
 2137  2136  2149     1 
 2136  2137  2138     1 
 2136  2137  2139     1 
 2138  2137  2139     1 
 2137  2139  2140     1 
 2139  2140  2141     1 
 2139  2140  2149     1 
 2141  2140  2149     1 
 2140  2141  2142     1 
 2140  2141  2145     1 
 2142  2141  2145     1 
 2141  2142  2143     1 
 2141  2142  2144     1 
 2143  2142  2144     1 
 2141  2145  2146     1 
 2145  2146  2147     1 
 2145  2146  2148     1 
 2147  2146  2148     1 
 2146  2148  2149     1 
 2136  2149  2140     1 
 2136  2149  2148     1 
 2140  2149  2148     1 
 2131  2150  2151     1 
 2131  2150  2152     1 
 2131  2150  2155     1 
 2151  2150  2152     1 
 2151  2150  2155     1 
 2152  2150  2155     1 
 2134  2152  2150     1 
 2134  2152  2153     1 
 2134  2152  2154     1 
 2150  2152  2153     1 
 2150  2152  2154     1 
 2153  2152  2154     1 
 2150  2155  2156     1 
 2155  2156  2157     1 
 2155  2156  2158     1 
 2155  2156  2159     1 
 2157  2156  2158     1 
 2157  2156  2159     1 
 2158  2156  2159     1 
 2156  2159  2160     1 
 2159  2160  2161     1 
 2159  2160  2162     1 
 2159  2160  2163     1 
 2161  2160  2162     1 
 2161  2160  2163     1 
 2162  2160  2163     1 
 2160  2163  2164     1 
 2160  2163  2165     1 
 2160  2163  2183     1 
 2164  2163  2165     1 
 2164  2163  2183     1 
 2165  2163  2183     1 
 2163  2165  2166     1 
 2165  2166  2167     1 
 2165  2166  2168     1 
 2165  2166  2185     1 
 2167  2166  2168     1 
 2167  2166  2185     1 
 2168  2166  2185     1 
 2166  2168  2169     1 
 2166  2168  2182     1 
 2169  2168  2182     1 
 2168  2169  2170     1 
 2168  2169  2171     1 
 2170  2169  2171     1 
 2169  2171  2172     1 
 2171  2172  2173     1 
 2171  2172  2182     1 
 2173  2172  2182     1 
 2172  2173  2174     1 
 2172  2173  2175     1 
 2174  2173  2175     1 
 2173  2175  2176     1 
 2173  2175  2177     1 
 2176  2175  2177     1 
 2175  2177  2178     1 
 2175  2177  2181     1 
 2178  2177  2181     1 
 2177  2178  2179     1 
 2177  2178  2180     1 
 2179  2178  2180     1 
 2177  2181  2182     1 
 2168  2182  2172     1 
 2168  2182  2181     1 
 2172  2182  2181     1 
 2163  2183  2184     1 
 2163  2183  2185     1 
 2163  2183  2188     1 
 2184  2183  2185     1 
 2184  2183  2188     1 
 2185  2183  2188     1 
 2166  2185  2183     1 
 2166  2185  2186     1 
 2166  2185  2187     1 
 2183  2185  2186     1 
 2183  2185  2187     1 
 2186  2185  2187     1 
 2183  2188  2189     1 
 2188  2189  2190     1 
 2188  2189  2191     1 
 2188  2189  2192     1 
 2190  2189  2191     1 
 2190  2189  2192     1 
 2191  2189  2192     1 
 2189  2192  2193     1 
 2192  2193  2194     1 
 2192  2193  2195     1 
 2192  2193  2196     1 
 2194  2193  2195     1 
 2194  2193  2196     1 
 2195  2193  2196     1 
 2193  2196  2197     1 
 2193  2196  2198     1 
 2193  2196  2216     1 
 2197  2196  2198     1 
 2197  2196  2216     1 
 2198  2196  2216     1 
 2196  2198  2199     1 
 2198  2199  2200     1 
 2198  2199  2201     1 
 2198  2199  2218     1 
 2200  2199  2201     1 
 2200  2199  2218     1 
 2201  2199  2218     1 
 2199  2201  2202     1 
 2199  2201  2215     1 
 2202  2201  2215     1 
 2201  2202  2203     1 
 2201  2202  2204     1 
 2203  2202  2204     1 
 2202  2204  2205     1 
 2204  2205  2206     1 
 2204  2205  2215     1 
 2206  2205  2215     1 
 2205  2206  2207     1 
 2205  2206  2208     1 
 2207  2206  2208     1 
 2206  2208  2209     1 
 2206  2208  2210     1 
 2209  2208  2210     1 
 2208  2210  2211     1 
 2208  2210  2214     1 
 2211  2210  2214     1 
 2210  2211  2212     1 
 2210  2211  2213     1 
 2212  2211  2213     1 
 2210  2214  2215     1 
 2201  2215  2205     1 
 2201  2215  2214     1 
 2205  2215  2214     1 
 2196  2216  2217     1 
 2196  2216  2218     1 
 2196  2216  2221     1 
 2217  2216  2218     1 
 2217  2216  2221     1 
 2218  2216  2221     1 
 2199  2218  2216     1 
 2199  2218  2219     1 
 2199  2218  2220     1 
 2216  2218  2219     1 
 2216  2218  2220     1 
 2219  2218  2220     1 
 2216  2221  2222     1 
 2221  2222  2223     1 
 2221  2222  2224     1 
 2221  2222  2225     1 
 2223  2222  2224     1 
 2223  2222  2225     1 
 2224  2222  2225     1 
 2222  2225  2226     1 
 2225  2226  2227     1 
 2225  2226  2228     1 
 2225  2226  2229     1 
 2227  2226  2228     1 
 2227  2226  2229     1 
 2228  2226  2229     1 
 2226  2229  2230     1 
 2226  2229  2231     1 
 2226  2229  2246     1 
 2230  2229  2231     1 
 2230  2229  2246     1 
 2231  2229  2246     1 
 2229  2231  2232     1 
 2231  2232  2233     1 
 2231  2232  2234     1 
 2231  2232  2248     1 
 2233  2232  2234     1 
 2233  2232  2248     1 
 2234  2232  2248     1 
 2232  2234  2235     1 
 2232  2234  2244     1 
 2235  2234  2244     1 
 2234  2235  2236     1 
 2234  2235  2237     1 
 2236  2235  2237     1 
 2235  2237  2238     1 
 2235  2237  2239     1 
 2238  2237  2239     1 
 2237  2239  2240     1 
 2237  2239  2243     1 
 2240  2239  2243     1 
 2239  2240  2241     1 
 2239  2240  2242     1 
 2241  2240  2242     1 
 2239  2243  2244     1 
 2234  2244  2243     1 
 2234  2244  2245     1 
 2243  2244  2245     1 
 2229  2246  2247     1 
 2229  2246  2248     1 
 2229  2246  2251     1 
 2247  2246  2248     1 
 2247  2246  2251     1 
 2248  2246  2251     1 
 2232  2248  2246     1 
 2232  2248  2249     1 
 2232  2248  2250     1 
 2246  2248  2249     1 
 2246  2248  2250     1 
 2249  2248  2250     1 
 2246  2251  2252     1 
 2251  2252  2253     1 
 2251  2252  2254     1 
 2251  2252  2255     1 
 2253  2252  2254     1 
 2253  2252  2255     1 
 2254  2252  2255     1 
 2252  2255  2256     1 
 2255  2256  2257     1 
 2255  2256  2258     1 
 2255  2256  2259     1 
 2257  2256  2258     1 
 2257  2256  2259     1 
 2258  2256  2259     1 
 2256  2259  2260     1 
 2256  2259  2261     1 
 2256  2259  2278     1 
 2260  2259  2261     1 
 2260  2259  2278     1 
 2261  2259  2278     1 
 2259  2261  2262     1 
 2261  2262  2263     1 
 2261  2262  2264     1 
 2261  2262  2280     1 
 2263  2262  2264     1 
 2263  2262  2280     1 
 2264  2262  2280     1 
 2262  2264  2265     1 
 2262  2264  2276     1 
 2265  2264  2276     1 
 2264  2265  2266     1 
 2264  2265  2267     1 
 2266  2265  2267     1 
 2265  2267  2268     1 
 2265  2267  2272     1 
 2268  2267  2272     1 
 2267  2268  2269     1 
 2267  2268  2270     1 
 2267  2268  2271     1 
 2269  2268  2270     1 
 2269  2268  2271     1 
 2270  2268  2271     1 
 2267  2272  2273     1 
 2267  2272  2274     1 
 2273  2272  2274     1 
 2272  2274  2275     1 
 2272  2274  2276     1 
 2275  2274  2276     1 
 2264  2276  2274     1 
 2264  2276  2277     1 
 2274  2276  2277     1 
 2259  2278  2279     1 
 2259  2278  2280     1 
 2259  2278  2283     1 
 2279  2278  2280     1 
 2279  2278  2283     1 
 2280  2278  2283     1 
 2262  2280  2278     1 
 2262  2280  2281     1 
 2262  2280  2282     1 
 2278  2280  2281     1 
 2278  2280  2282     1 
 2281  2280  2282     1 
 2278  2283  2284     1 
 2283  2284  2285     1 
 2283  2284  2286     1 
 2283  2284  2287     1 
 2285  2284  2286     1 
 2285  2284  2287     1 
 2286  2284  2287     1 
 2284  2287  2288     1 
 2287  2288  2289     1 
 2287  2288  2290     1 
 2287  2288  2291     1 
 2289  2288  2290     1 
 2289  2288  2291     1 
 2290  2288  2291     1 
 2288  2291  2292     1 
 2288  2291  2293     1 
 2288  2291  2308     1 
 2292  2291  2293     1 
 2292  2291  2308     1 
 2293  2291  2308     1 
 2291  2293  2294     1 
 2293  2294  2295     1 
 2293  2294  2296     1 
 2293  2294  2310     1 
 2295  2294  2296     1 
 2295  2294  2310     1 
 2296  2294  2310     1 
 2294  2296  2297     1 
 2294  2296  2306     1 
 2297  2296  2306     1 
 2296  2297  2298     1 
 2296  2297  2299     1 
 2298  2297  2299     1 
 2297  2299  2300     1 
 2297  2299  2301     1 
 2300  2299  2301     1 
 2299  2301  2302     1 
 2299  2301  2305     1 
 2302  2301  2305     1 
 2301  2302  2303     1 
 2301  2302  2304     1 
 2303  2302  2304     1 
 2301  2305  2306     1 
 2296  2306  2305     1 
 2296  2306  2307     1 
 2305  2306  2307     1 
 2291  2308  2309     1 
 2291  2308  2310     1 
 2291  2308  2313     1 
 2309  2308  2310     1 
 2309  2308  2313     1 
 2310  2308  2313     1 
 2294  2310  2308     1 
 2294  2310  2311     1 
 2294  2310  2312     1 
 2308  2310  2311     1 
 2308  2310  2312     1 
 2311  2310  2312     1 
 2308  2313  2314     1 
 2313  2314  2315     1 
 2313  2314  2316     1 
 2313  2314  2317     1 
 2315  2314  2316     1 
 2315  2314  2317     1 
 2316  2314  2317     1 
 2314  2317  2318     1 
 2317  2318  2319     1 
 2317  2318  2320     1 
 2317  2318  2321     1 
 2319  2318  2320     1 
 2319  2318  2321     1 
 2320  2318  2321     1 
 2318  2321  2322     1 
 2318  2321  2323     1 
 2318  2321  2340     1 
 2322  2321  2323     1 
 2322  2321  2340     1 
 2323  2321  2340     1 
 2321  2323  2324     1 
 2323  2324  2325     1 
 2323  2324  2326     1 
 2323  2324  2342     1 
 2325  2324  2326     1 
 2325  2324  2342     1 
 2326  2324  2342     1 
 2324  2326  2327     1 
 2324  2326  2339     1 
 2327  2326  2339     1 
 2326  2327  2328     1 
 2326  2327  2329     1 
 2328  2327  2329     1 
 2327  2329  2330     1 
 2329  2330  2331     1 
 2329  2330  2339     1 
 2331  2330  2339     1 
 2330  2331  2332     1 
 2330  2331  2335     1 
 2332  2331  2335     1 
 2331  2332  2333     1 
 2331  2332  2334     1 
 2333  2332  2334     1 
 2331  2335  2336     1 
 2335  2336  2337     1 
 2335  2336  2338     1 
 2337  2336  2338     1 
 2336  2338  2339     1 
 2326  2339  2330     1 
 2326  2339  2338     1 
 2330  2339  2338     1 
 2321  2340  2341     1 
 2321  2340  2342     1 
 2321  2340  2345     1 
 2341  2340  2342     1 
 2341  2340  2345     1 
 2342  2340  2345     1 
 2324  2342  2340     1 
 2324  2342  2343     1 
 2324  2342  2344     1 
 2340  2342  2343     1 
 2340  2342  2344     1 
 2343  2342  2344     1 
 2340  2345  2346     1 
 2345  2346  2347     1 
 2345  2346  2348     1 
 2345  2346  2349     1 
 2347  2346  2348     1 
 2347  2346  2349     1 
 2348  2346  2349     1 
 2346  2349  2350     1 
 2349  2350  2351     1 
 2349  2350  2352     1 
 2349  2350  2353     1 
 2351  2350  2352     1 
 2351  2350  2353     1 
 2352  2350  2353     1 
 2350  2353  2354     1 
 2350  2353  2355     1 
 2350  2353  2373     1 
 2354  2353  2355     1 
 2354  2353  2373     1 
 2355  2353  2373     1 
 2353  2355  2356     1 
 2355  2356  2357     1 
 2355  2356  2358     1 
 2355  2356  2375     1 
 2357  2356  2358     1 
 2357  2356  2375     1 
 2358  2356  2375     1 
 2356  2358  2359     1 
 2356  2358  2372     1 
 2359  2358  2372     1 
 2358  2359  2360     1 
 2358  2359  2361     1 
 2360  2359  2361     1 
 2359  2361  2362     1 
 2361  2362  2363     1 
 2361  2362  2372     1 
 2363  2362  2372     1 
 2362  2363  2364     1 
 2362  2363  2365     1 
 2364  2363  2365     1 
 2363  2365  2366     1 
 2363  2365  2367     1 
 2366  2365  2367     1 
 2365  2367  2368     1 
 2365  2367  2371     1 
 2368  2367  2371     1 
 2367  2368  2369     1 
 2367  2368  2370     1 
 2369  2368  2370     1 
 2367  2371  2372     1 
 2358  2372  2362     1 
 2358  2372  2371     1 
 2362  2372  2371     1 
 2353  2373  2374     1 
 2353  2373  2375     1 
 2353  2373  2378     1 
 2374  2373  2375     1 
 2374  2373  2378     1 
 2375  2373  2378     1 
 2356  2375  2373     1 
 2356  2375  2376     1 
 2356  2375  2377     1 
 2373  2375  2376     1 
 2373  2375  2377     1 
 2376  2375  2377     1 
 2373  2378  2379     1 
 2378  2379  2380     1 
 2378  2379  2381     1 
 2378  2379  2382     1 
 2380  2379  2381     1 
 2380  2379  2382     1 
 2381  2379  2382     1 
 2379  2382  2383     1 
 2382  2383  2384     1 
 2382  2383  2385     1 
 2382  2383  2386     1 
 2384  2383  2385     1 
 2384  2383  2386     1 
 2385  2383  2386     1 
 2383  2386  2387     1 
 2383  2386  2388     1 
 2383  2386  2403     1 
 2387  2386  2388     1 
 2387  2386  2403     1 
 2388  2386  2403     1 
 2386  2388  2389     1 
 2388  2389  2390     1 
 2388  2389  2391     1 
 2388  2389  2405     1 
 2390  2389  2391     1 
 2390  2389  2405     1 
 2391  2389  2405     1 
 2389  2391  2392     1 
 2389  2391  2401     1 
 2392  2391  2401     1 
 2391  2392  2393     1 
 2391  2392  2394     1 
 2393  2392  2394     1 
 2392  2394  2395     1 
 2392  2394  2396     1 
 2395  2394  2396     1 
 2394  2396  2397     1 
 2394  2396  2400     1 
 2397  2396  2400     1 
 2396  2397  2398     1 
 2396  2397  2399     1 
 2398  2397  2399     1 
 2396  2400  2401     1 
 2391  2401  2400     1 
 2391  2401  2402     1 
 2400  2401  2402     1 
 2386  2403  2404     1 
 2386  2403  2405     1 
 2386  2403  2408     1 
 2404  2403  2405     1 
 2404  2403  2408     1 
 2405  2403  2408     1 
 2389  2405  2403     1 
 2389  2405  2406     1 
 2389  2405  2407     1 
 2403  2405  2406     1 
 2403  2405  2407     1 
 2406  2405  2407     1 
 2403  2408  2409     1 
 2408  2409  2410     1 
 2408  2409  2411     1 
 2408  2409  2412     1 
 2410  2409  2411     1 
 2410  2409  2412     1 
 2411  2409  2412     1 
 2409  2412  2413     1 
 2412  2413  2414     1 
 2412  2413  2415     1 
 2412  2413  2416     1 
 2414  2413  2415     1 
 2414  2413  2416     1 
 2415  2413  2416     1 
 2413  2416  2417     1 
 2413  2416  2418     1 
 2413  2416  2436     1 
 2417  2416  2418     1 
 2417  2416  2436     1 
 2418  2416  2436     1 
 2416  2418  2419     1 
 2418  2419  2420     1 
 2418  2419  2421     1 
 2418  2419  2438     1 
 2420  2419  2421     1 
 2420  2419  2438     1 
 2421  2419  2438     1 
 2419  2421  2422     1 
 2419  2421  2435     1 
 2422  2421  2435     1 
 2421  2422  2423     1 
 2421  2422  2424     1 
 2423  2422  2424     1 
 2422  2424  2425     1 
 2424  2425  2426     1 
 2424  2425  2435     1 
 2426  2425  2435     1 
 2425  2426  2427     1 
 2425  2426  2428     1 
 2427  2426  2428     1 
 2426  2428  2429     1 
 2426  2428  2430     1 
 2429  2428  2430     1 
 2428  2430  2431     1 
 2428  2430  2434     1 
 2431  2430  2434     1 
 2430  2431  2432     1 
 2430  2431  2433     1 
 2432  2431  2433     1 
 2430  2434  2435     1 
 2421  2435  2425     1 
 2421  2435  2434     1 
 2425  2435  2434     1 
 2416  2436  2437     1 
 2416  2436  2438     1 
 2416  2436  2441     1 
 2437  2436  2438     1 
 2437  2436  2441     1 
 2438  2436  2441     1 
 2419  2438  2436     1 
 2419  2438  2439     1 
 2419  2438  2440     1 
 2436  2438  2439     1 
 2436  2438  2440     1 
 2439  2438  2440     1 
 2436  2441  2442     1 
 2441  2442  2443     1 
 2441  2442  2444     1 
 2441  2442  2445     1 
 2443  2442  2444     1 
 2443  2442  2445     1 
 2444  2442  2445     1 
 2442  2445  2446     1 
 2445  2446  2447     1 
 2445  2446  2448     1 
 2445  2446  2449     1 
 2447  2446  2448     1 
 2447  2446  2449     1 
 2448  2446  2449     1 
 2446  2449  2450     1 
 2446  2449  2451     1 
 2446  2449  2469     1 
 2450  2449  2451     1 
 2450  2449  2469     1 
 2451  2449  2469     1 
 2449  2451  2452     1 
 2451  2452  2453     1 
 2451  2452  2454     1 
 2451  2452  2471     1 
 2453  2452  2454     1 
 2453  2452  2471     1 
 2454  2452  2471     1 
 2452  2454  2455     1 
 2452  2454  2468     1 
 2455  2454  2468     1 
 2454  2455  2456     1 
 2454  2455  2457     1 
 2456  2455  2457     1 
 2455  2457  2458     1 
 2457  2458  2459     1 
 2457  2458  2468     1 
 2459  2458  2468     1 
 2458  2459  2460     1 
 2458  2459  2461     1 
 2460  2459  2461     1 
 2459  2461  2462     1 
 2459  2461  2463     1 
 2462  2461  2463     1 
 2461  2463  2464     1 
 2461  2463  2467     1 
 2464  2463  2467     1 
 2463  2464  2465     1 
 2463  2464  2466     1 
 2465  2464  2466     1 
 2463  2467  2468     1 
 2454  2468  2458     1 
 2454  2468  2467     1 
 2458  2468  2467     1 
 2449  2469  2470     1 
 2449  2469  2471     1 
 2449  2469  2474     1 
 2470  2469  2471     1 
 2470  2469  2474     1 
 2471  2469  2474     1 
 2452  2471  2469     1 
 2452  2471  2472     1 
 2452  2471  2473     1 
 2469  2471  2472     1 
 2469  2471  2473     1 
 2472  2471  2473     1 
 2469  2474  2475     1 
 2474  2475  2476     1 
 2474  2475  2477     1 
 2474  2475  2478     1 
 2476  2475  2477     1 
 2476  2475  2478     1 
 2477  2475  2478     1 
 2475  2478  2479     1 
 2478  2479  2480     1 
 2478  2479  2481     1 
 2478  2479  2482     1 
 2480  2479  2481     1 
 2480  2479  2482     1 
 2481  2479  2482     1 
 2479  2482  2483     1 
 2479  2482  2484     1 
 2479  2482  2499     1 
 2483  2482  2484     1 
 2483  2482  2499     1 
 2484  2482  2499     1 
 2482  2484  2485     1 
 2484  2485  2486     1 
 2484  2485  2487     1 
 2484  2485  2501     1 
 2486  2485  2487     1 
 2486  2485  2501     1 
 2487  2485  2501     1 
 2485  2487  2488     1 
 2485  2487  2497     1 
 2488  2487  2497     1 
 2487  2488  2489     1 
 2487  2488  2490     1 
 2489  2488  2490     1 
 2488  2490  2491     1 
 2488  2490  2492     1 
 2491  2490  2492     1 
 2490  2492  2493     1 
 2490  2492  2496     1 
 2493  2492  2496     1 
 2492  2493  2494     1 
 2492  2493  2495     1 
 2494  2493  2495     1 
 2492  2496  2497     1 
 2487  2497  2496     1 
 2487  2497  2498     1 
 2496  2497  2498     1 
 2482  2499  2500     1 
 2482  2499  2501     1 
 2482  2499  2504     1 
 2500  2499  2501     1 
 2500  2499  2504     1 
 2501  2499  2504     1 
 2485  2501  2499     1 
 2485  2501  2502     1 
 2485  2501  2503     1 
 2499  2501  2502     1 
 2499  2501  2503     1 
 2502  2501  2503     1 
 2499  2504  2505     1 
 2504  2505  2506     1 
 2504  2505  2507     1 
 2504  2505  2508     1 
 2506  2505  2507     1 
 2506  2505  2508     1 
 2507  2505  2508     1 
 2505  2508  2509     1 
 2508  2509  2510     1 
 2508  2509  2511     1 
 2508  2509  2512     1 
 2510  2509  2511     1 
 2510  2509  2512     1 
 2511  2509  2512     1 
 2509  2512  2513     1 
 2509  2512  2514     1 
 2509  2512  2531     1 
 2513  2512  2514     1 
 2513  2512  2531     1 
 2514  2512  2531     1 
 2512  2514  2515     1 
 2514  2515  2516     1 
 2514  2515  2517     1 
 2514  2515  2533     1 
 2516  2515  2517     1 
 2516  2515  2533     1 
 2517  2515  2533     1 
 2515  2517  2518     1 
 2515  2517  2529     1 
 2518  2517  2529     1 
 2517  2518  2519     1 
 2517  2518  2520     1 
 2519  2518  2520     1 
 2518  2520  2521     1 
 2518  2520  2525     1 
 2521  2520  2525     1 
 2520  2521  2522     1 
 2520  2521  2523     1 
 2520  2521  2524     1 
 2522  2521  2523     1 
 2522  2521  2524     1 
 2523  2521  2524     1 
 2520  2525  2526     1 
 2520  2525  2527     1 
 2526  2525  2527     1 
 2525  2527  2528     1 
 2525  2527  2529     1 
 2528  2527  2529     1 
 2517  2529  2527     1 
 2517  2529  2530     1 
 2527  2529  2530     1 
 2512  2531  2532     1 
 2512  2531  2533     1 
 2512  2531  2536     1 
 2532  2531  2533     1 
 2532  2531  2536     1 
 2533  2531  2536     1 
 2515  2533  2531     1 
 2515  2533  2534     1 
 2515  2533  2535     1 
 2531  2533  2534     1 
 2531  2533  2535     1 
 2534  2533  2535     1 
 2531  2536  2537     1 
 2536  2537  2538     1 
 2536  2537  2539     1 
 2536  2537  2540     1 
 2538  2537  2539     1 
 2538  2537  2540     1 
 2539  2537  2540     1 
 2537  2540  2541     1 
 2540  2541  2542     1 
 2540  2541  2543     1 
 2540  2541  2544     1 
 2542  2541  2543     1 
 2542  2541  2544     1 
 2543  2541  2544     1 
 2541  2544  2545     1 
 2541  2544  2546     1 
 2541  2544  2561     1 
 2545  2544  2546     1 
 2545  2544  2561     1 
 2546  2544  2561     1 
 2544  2546  2547     1 
 2546  2547  2548     1 
 2546  2547  2549     1 
 2546  2547  2563     1 
 2548  2547  2549     1 
 2548  2547  2563     1 
 2549  2547  2563     1 
 2547  2549  2550     1 
 2547  2549  2559     1 
 2550  2549  2559     1 
 2549  2550  2551     1 
 2549  2550  2552     1 
 2551  2550  2552     1 
 2550  2552  2553     1 
 2550  2552  2554     1 
 2553  2552  2554     1 
 2552  2554  2555     1 
 2552  2554  2558     1 
 2555  2554  2558     1 
 2554  2555  2556     1 
 2554  2555  2557     1 
 2556  2555  2557     1 
 2554  2558  2559     1 
 2549  2559  2558     1 
 2549  2559  2560     1 
 2558  2559  2560     1 
 2544  2561  2562     1 
 2544  2561  2563     1 
 2544  2561  2566     1 
 2562  2561  2563     1 
 2562  2561  2566     1 
 2563  2561  2566     1 
 2547  2563  2561     1 
 2547  2563  2564     1 
 2547  2563  2565     1 
 2561  2563  2564     1 
 2561  2563  2565     1 
 2564  2563  2565     1 
 2561  2566  2567     1 
 2566  2567  2568     1 
 2566  2567  2569     1 
 2566  2567  2570     1 
 2568  2567  2569     1 
 2568  2567  2570     1 
 2569  2567  2570     1 
 2567  2570  2571     1 
 2570  2571  2572     1 
 2570  2571  2573     1 
 2570  2571  2574     1 
 2572  2571  2573     1 
 2572  2571  2574     1 
 2573  2571  2574     1 
 2571  2574  2575     1 
 2571  2574  2576     1 
 2571  2574  2591     1 
 2575  2574  2576     1 
 2575  2574  2591     1 
 2576  2574  2591     1 
 2574  2576  2577     1 
 2576  2577  2578     1 
 2576  2577  2579     1 
 2576  2577  2593     1 
 2578  2577  2579     1 
 2578  2577  2593     1 
 2579  2577  2593     1 
 2577  2579  2580     1 
 2577  2579  2589     1 
 2580  2579  2589     1 
 2579  2580  2581     1 
 2579  2580  2582     1 
 2581  2580  2582     1 
 2580  2582  2583     1 
 2580  2582  2584     1 
 2583  2582  2584     1 
 2582  2584  2585     1 
 2582  2584  2588     1 
 2585  2584  2588     1 
 2584  2585  2586     1 
 2584  2585  2587     1 
 2586  2585  2587     1 
 2584  2588  2589     1 
 2579  2589  2588     1 
 2579  2589  2590     1 
 2588  2589  2590     1 
 2574  2591  2592     1 
 2574  2591  2593     1 
 2574  2591  2596     1 
 2592  2591  2593     1 
 2592  2591  2596     1 
 2593  2591  2596     1 
 2577  2593  2591     1 
 2577  2593  2594     1 
 2577  2593  2595     1 
 2591  2593  2594     1 
 2591  2593  2595     1 
 2594  2593  2595     1 
 2591  2596  2597     1 
 2596  2597  2598     1 
 2596  2597  2599     1 
 2596  2597  2600     1 
 2598  2597  2599     1 
 2598  2597  2600     1 
 2599  2597  2600     1 
 2597  2600  2601     1 
 2600  2601  2602     1 
 2600  2601  2603     1 
 2600  2601  2604     1 
 2602  2601  2603     1 
 2602  2601  2604     1 
 2603  2601  2604     1 
 2601  2604  2605     1 
 2601  2604  2606     1 
 2601  2604  2621     1 
 2605  2604  2606     1 
 2605  2604  2621     1 
 2606  2604  2621     1 
 2604  2606  2607     1 
 2606  2607  2608     1 
 2606  2607  2609     1 
 2606  2607  2623     1 
 2608  2607  2609     1 
 2608  2607  2623     1 
 2609  2607  2623     1 
 2607  2609  2610     1 
 2607  2609  2619     1 
 2610  2609  2619     1 
 2609  2610  2611     1 
 2609  2610  2612     1 
 2611  2610  2612     1 
 2610  2612  2613     1 
 2610  2612  2614     1 
 2613  2612  2614     1 
 2612  2614  2615     1 
 2612  2614  2618     1 
 2615  2614  2618     1 
 2614  2615  2616     1 
 2614  2615  2617     1 
 2616  2615  2617     1 
 2614  2618  2619     1 
 2609  2619  2618     1 
 2609  2619  2620     1 
 2618  2619  2620     1 
 2604  2621  2622     1 
 2604  2621  2623     1 
 2604  2621  2626     1 
 2622  2621  2623     1 
 2622  2621  2626     1 
 2623  2621  2626     1 
 2607  2623  2621     1 
 2607  2623  2624     1 
 2607  2623  2625     1 
 2621  2623  2624     1 
 2621  2623  2625     1 
 2624  2623  2625     1 
 2621  2626  2627     1 
 2626  2627  2628     1 
 2626  2627  2629     1 
 2626  2627  2630     1 
 2628  2627  2629     1 
 2628  2627  2630     1 
 2629  2627  2630     1 
 2627  2630  2631     1 
 2630  2631  2632     1 
 2630  2631  2633     1 
 2630  2631  2634     1 
 2632  2631  2633     1 
 2632  2631  2634     1 
 2633  2631  2634     1 
 2631  2634  2635     1 
 2631  2634  2636     1 
 2631  2634  2653     1 
 2635  2634  2636     1 
 2635  2634  2653     1 
 2636  2634  2653     1 
 2634  2636  2637     1 
 2636  2637  2638     1 
 2636  2637  2639     1 
 2636  2637  2655     1 
 2638  2637  2639     1 
 2638  2637  2655     1 
 2639  2637  2655     1 
 2637  2639  2640     1 
 2637  2639  2652     1 
 2640  2639  2652     1 
 2639  2640  2641     1 
 2639  2640  2642     1 
 2641  2640  2642     1 
 2640  2642  2643     1 
 2642  2643  2644     1 
 2642  2643  2652     1 
 2644  2643  2652     1 
 2643  2644  2645     1 
 2643  2644  2648     1 
 2645  2644  2648     1 
 2644  2645  2646     1 
 2644  2645  2647     1 
 2646  2645  2647     1 
 2644  2648  2649     1 
 2648  2649  2650     1 
 2648  2649  2651     1 
 2650  2649  2651     1 
 2649  2651  2652     1 
 2639  2652  2643     1 
 2639  2652  2651     1 
 2643  2652  2651     1 
 2634  2653  2654     1 
 2634  2653  2655     1 
 2634  2653  2658     1 
 2654  2653  2655     1 
 2654  2653  2658     1 
 2655  2653  2658     1 
 2637  2655  2653     1 
 2637  2655  2656     1 
 2637  2655  2657     1 
 2653  2655  2656     1 
 2653  2655  2657     1 
 2656  2655  2657     1 
 2653  2658  2659     1 
 2658  2659  2660     1 
 2658  2659  2661     1 
 2658  2659  2662     1 
 2660  2659  2661     1 
 2660  2659  2662     1 
 2661  2659  2662     1 
 2659  2662  2663     1 
 2662  2663  2664     1 
 2662  2663  2665     1 
 2662  2663  2666     1 
 2664  2663  2665     1 
 2664  2663  2666     1 
 2665  2663  2666     1 
 2663  2666  2667     1 
 2663  2666  2668     1 
 2663  2666  2686     1 
 2667  2666  2668     1 
 2667  2666  2686     1 
 2668  2666  2686     1 
 2666  2668  2669     1 
 2668  2669  2670     1 
 2668  2669  2671     1 
 2668  2669  2688     1 
 2670  2669  2671     1 
 2670  2669  2688     1 
 2671  2669  2688     1 
 2669  2671  2672     1 
 2669  2671  2685     1 
 2672  2671  2685     1 
 2671  2672  2673     1 
 2671  2672  2674     1 
 2673  2672  2674     1 
 2672  2674  2675     1 
 2674  2675  2676     1 
 2674  2675  2685     1 
 2676  2675  2685     1 
 2675  2676  2677     1 
 2675  2676  2678     1 
 2677  2676  2678     1 
 2676  2678  2679     1 
 2676  2678  2680     1 
 2679  2678  2680     1 
 2678  2680  2681     1 
 2678  2680  2684     1 
 2681  2680  2684     1 
 2680  2681  2682     1 
 2680  2681  2683     1 
 2682  2681  2683     1 
 2680  2684  2685     1 
 2671  2685  2675     1 
 2671  2685  2684     1 
 2675  2685  2684     1 
 2666  2686  2687     1 
 2666  2686  2688     1 
 2666  2686  2691     1 
 2687  2686  2688     1 
 2687  2686  2691     1 
 2688  2686  2691     1 
 2669  2688  2686     1 
 2669  2688  2689     1 
 2669  2688  2690     1 
 2686  2688  2689     1 
 2686  2688  2690     1 
 2689  2688  2690     1 
 2686  2691  2692     1 
 2691  2692  2693     1 
 2691  2692  2694     1 
 2691  2692  2695     1 
 2693  2692  2694     1 
 2693  2692  2695     1 
 2694  2692  2695     1 
 2692  2695  2696     1 
 2695  2696  2697     1 
 2695  2696  2698     1 
 2695  2696  2699     1 
 2697  2696  2698     1 
 2697  2696  2699     1 
 2698  2696  2699     1 
 2696  2699  2700     1 
 2696  2699  2701     1 
 2696  2699  2719     1 
 2700  2699  2701     1 
 2700  2699  2719     1 
 2701  2699  2719     1 
 2699  2701  2702     1 
 2701  2702  2703     1 
 2701  2702  2704     1 
 2701  2702  2721     1 
 2703  2702  2704     1 
 2703  2702  2721     1 
 2704  2702  2721     1 
 2702  2704  2705     1 
 2702  2704  2718     1 
 2705  2704  2718     1 
 2704  2705  2706     1 
 2704  2705  2707     1 
 2706  2705  2707     1 
 2705  2707  2708     1 
 2707  2708  2709     1 
 2707  2708  2718     1 
 2709  2708  2718     1 
 2708  2709  2710     1 
 2708  2709  2711     1 
 2710  2709  2711     1 
 2709  2711  2712     1 
 2709  2711  2713     1 
 2712  2711  2713     1 
 2711  2713  2714     1 
 2711  2713  2717     1 
 2714  2713  2717     1 
 2713  2714  2715     1 
 2713  2714  2716     1 
 2715  2714  2716     1 
 2713  2717  2718     1 
 2704  2718  2708     1 
 2704  2718  2717     1 
 2708  2718  2717     1 
 2699  2719  2720     1 
 2699  2719  2721     1 
 2699  2719  2724     1 
 2720  2719  2721     1 
 2720  2719  2724     1 
 2721  2719  2724     1 
 2702  2721  2719     1 
 2702  2721  2722     1 
 2702  2721  2723     1 
 2719  2721  2722     1 
 2719  2721  2723     1 
 2722  2721  2723     1 
 2719  2724  2725     1 
 2724  2725  2726     1 
 2724  2725  2727     1 
 2724  2725  2728     1 
 2726  2725  2727     1 
 2726  2725  2728     1 
 2727  2725  2728     1 
 2725  2728  2729     1 
 2728  2729  2730     1 
 2728  2729  2731     1 
 2728  2729  2732     1 
 2730  2729  2731     1 
 2730  2729  2732     1 
 2731  2729  2732     1 
 2729  2732  2733     1 
 2729  2732  2734     1 
 2729  2732  2751     1 
 2733  2732  2734     1 
 2733  2732  2751     1 
 2734  2732  2751     1 
 2732  2734  2735     1 
 2734  2735  2736     1 
 2734  2735  2737     1 
 2734  2735  2753     1 
 2736  2735  2737     1 
 2736  2735  2753     1 
 2737  2735  2753     1 
 2735  2737  2738     1 
 2735  2737  2749     1 
 2738  2737  2749     1 
 2737  2738  2739     1 
 2737  2738  2740     1 
 2739  2738  2740     1 
 2738  2740  2741     1 
 2738  2740  2745     1 
 2741  2740  2745     1 
 2740  2741  2742     1 
 2740  2741  2743     1 
 2740  2741  2744     1 
 2742  2741  2743     1 
 2742  2741  2744     1 
 2743  2741  2744     1 
 2740  2745  2746     1 
 2740  2745  2747     1 
 2746  2745  2747     1 
 2745  2747  2748     1 
 2745  2747  2749     1 
 2748  2747  2749     1 
 2737  2749  2747     1 
 2737  2749  2750     1 
 2747  2749  2750     1 
 2732  2751  2752     1 
 2732  2751  2753     1 
 2732  2751  2756     1 
 2752  2751  2753     1 
 2752  2751  2756     1 
 2753  2751  2756     1 
 2735  2753  2751     1 
 2735  2753  2754     1 
 2735  2753  2755     1 
 2751  2753  2754     1 
 2751  2753  2755     1 
 2754  2753  2755     1 
 2751  2756  2757     1 
 2756  2757  2758     1 
 2756  2757  2759     1 
 2756  2757  2760     1 
 2758  2757  2759     1 
 2758  2757  2760     1 
 2759  2757  2760     1 
 2757  2760  2761     1 
 2760  2761  2762     1 
 2760  2761  2763     1 
 2760  2761  2764     1 
 2762  2761  2763     1 
 2762  2761  2764     1 
 2763  2761  2764     1 
 2761  2764  2765     1 
 2761  2764  2766     1 
 2761  2764  2784     1 
 2765  2764  2766     1 
 2765  2764  2784     1 
 2766  2764  2784     1 
 2764  2766  2767     1 
 2766  2767  2768     1 
 2766  2767  2769     1 
 2766  2767  2786     1 
 2768  2767  2769     1 
 2768  2767  2786     1 
 2769  2767  2786     1 
 2767  2769  2770     1 
 2767  2769  2783     1 
 2770  2769  2783     1 
 2769  2770  2771     1 
 2769  2770  2772     1 
 2771  2770  2772     1 
 2770  2772  2773     1 
 2772  2773  2774     1 
 2772  2773  2783     1 
 2774  2773  2783     1 
 2773  2774  2775     1 
 2773  2774  2776     1 
 2775  2774  2776     1 
 2774  2776  2777     1 
 2774  2776  2778     1 
 2777  2776  2778     1 
 2776  2778  2779     1 
 2776  2778  2782     1 
 2779  2778  2782     1 
 2778  2779  2780     1 
 2778  2779  2781     1 
 2780  2779  2781     1 
 2778  2782  2783     1 
 2769  2783  2773     1 
 2769  2783  2782     1 
 2773  2783  2782     1 
 2764  2784  2785     1 
 2764  2784  2786     1 
 2764  2784  2789     1 
 2785  2784  2786     1 
 2785  2784  2789     1 
 2786  2784  2789     1 
 2767  2786  2784     1 
 2767  2786  2787     1 
 2767  2786  2788     1 
 2784  2786  2787     1 
 2784  2786  2788     1 
 2787  2786  2788     1 
 2784  2789  2790     1 
 2789  2790  2791     1 
 2789  2790  2792     1 
 2789  2790  2793     1 
 2791  2790  2792     1 
 2791  2790  2793     1 
 2792  2790  2793     1 
 2790  2793  2794     1 
 2793  2794  2795     1 
 2793  2794  2796     1 
 2793  2794  2797     1 
 2795  2794  2796     1 
 2795  2794  2797     1 
 2796  2794  2797     1 
 2794  2797  2798     1 
 2794  2797  2799     1 
 2794  2797  2814     1 
 2798  2797  2799     1 
 2798  2797  2814     1 
 2799  2797  2814     1 
 2797  2799  2800     1 
 2799  2800  2801     1 
 2799  2800  2802     1 
 2799  2800  2816     1 
 2801  2800  2802     1 
 2801  2800  2816     1 
 2802  2800  2816     1 
 2800  2802  2803     1 
 2800  2802  2812     1 
 2803  2802  2812     1 
 2802  2803  2804     1 
 2802  2803  2805     1 
 2804  2803  2805     1 
 2803  2805  2806     1 
 2803  2805  2807     1 
 2806  2805  2807     1 
 2805  2807  2808     1 
 2805  2807  2811     1 
 2808  2807  2811     1 
 2807  2808  2809     1 
 2807  2808  2810     1 
 2809  2808  2810     1 
 2807  2811  2812     1 
 2802  2812  2811     1 
 2802  2812  2813     1 
 2811  2812  2813     1 
 2797  2814  2815     1 
 2797  2814  2816     1 
 2797  2814  2819     1 
 2815  2814  2816     1 
 2815  2814  2819     1 
 2816  2814  2819     1 
 2800  2816  2814     1 
 2800  2816  2817     1 
 2800  2816  2818     1 
 2814  2816  2817     1 
 2814  2816  2818     1 
 2817  2816  2818     1 
 2814  2819  2820     1 
 2819  2820  2821     1 
 2819  2820  2822     1 
 2819  2820  2823     1 
 2821  2820  2822     1 
 2821  2820  2823     1 
 2822  2820  2823     1 
 2820  2823  2824     1 
 2823  2824  2825     1 
 2823  2824  2826     1 
 2823  2824  2827     1 
 2825  2824  2826     1 
 2825  2824  2827     1 
 2826  2824  2827     1 
 2824  2827  2828     1 
 2824  2827  2829     1 
 2824  2827  2847     1 
 2828  2827  2829     1 
 2828  2827  2847     1 
 2829  2827  2847     1 
 2827  2829  2830     1 
 2829  2830  2831     1 
 2829  2830  2832     1 
 2829  2830  2849     1 
 2831  2830  2832     1 
 2831  2830  2849     1 
 2832  2830  2849     1 
 2830  2832  2833     1 
 2830  2832  2846     1 
 2833  2832  2846     1 
 2832  2833  2834     1 
 2832  2833  2835     1 
 2834  2833  2835     1 
 2833  2835  2836     1 
 2835  2836  2837     1 
 2835  2836  2846     1 
 2837  2836  2846     1 
 2836  2837  2838     1 
 2836  2837  2839     1 
 2838  2837  2839     1 
 2837  2839  2840     1 
 2837  2839  2841     1 
 2840  2839  2841     1 
 2839  2841  2842     1 
 2839  2841  2845     1 
 2842  2841  2845     1 
 2841  2842  2843     1 
 2841  2842  2844     1 
 2843  2842  2844     1 
 2841  2845  2846     1 
 2832  2846  2836     1 
 2832  2846  2845     1 
 2836  2846  2845     1 
 2827  2847  2848     1 
 2827  2847  2849     1 
 2827  2847  2852     1 
 2848  2847  2849     1 
 2848  2847  2852     1 
 2849  2847  2852     1 
 2830  2849  2847     1 
 2830  2849  2850     1 
 2830  2849  2851     1 
 2847  2849  2850     1 
 2847  2849  2851     1 
 2850  2849  2851     1 
 2847  2852  2853     1 
 2852  2853  2854     1 
 2852  2853  2855     1 
 2852  2853  2856     1 
 2854  2853  2855     1 
 2854  2853  2856     1 
 2855  2853  2856     1 
 2853  2856  2857     1 
 2856  2857  2858     1 
 2856  2857  2859     1 
 2856  2857  2860     1 
 2858  2857  2859     1 
 2858  2857  2860     1 
 2859  2857  2860     1 
 2857  2860  2861     1 
 2857  2860  2862     1 
 2857  2860  2880     1 
 2861  2860  2862     1 
 2861  2860  2880     1 
 2862  2860  2880     1 
 2860  2862  2863     1 
 2862  2863  2864     1 
 2862  2863  2865     1 
 2862  2863  2882     1 
 2864  2863  2865     1 
 2864  2863  2882     1 
 2865  2863  2882     1 
 2863  2865  2866     1 
 2863  2865  2879     1 
 2866  2865  2879     1 
 2865  2866  2867     1 
 2865  2866  2868     1 
 2867  2866  2868     1 
 2866  2868  2869     1 
 2868  2869  2870     1 
 2868  2869  2879     1 
 2870  2869  2879     1 
 2869  2870  2871     1 
 2869  2870  2872     1 
 2871  2870  2872     1 
 2870  2872  2873     1 
 2870  2872  2874     1 
 2873  2872  2874     1 
 2872  2874  2875     1 
 2872  2874  2878     1 
 2875  2874  2878     1 
 2874  2875  2876     1 
 2874  2875  2877     1 
 2876  2875  2877     1 
 2874  2878  2879     1 
 2865  2879  2869     1 
 2865  2879  2878     1 
 2869  2879  2878     1 
 2860  2880  2881     1 
 2860  2880  2882     1 
 2860  2880  2885     1 
 2881  2880  2882     1 
 2881  2880  2885     1 
 2882  2880  2885     1 
 2863  2882  2880     1 
 2863  2882  2883     1 
 2863  2882  2884     1 
 2880  2882  2883     1 
 2880  2882  2884     1 
 2883  2882  2884     1 
 2880  2885  2886     1 
 2885  2886  2887     1 
 2885  2886  2888     1 
 2885  2886  2889     1 
 2887  2886  2888     1 
 2887  2886  2889     1 
 2888  2886  2889     1 
 2886  2889  2890     1 
 2889  2890  2891     1 
 2889  2890  2892     1 
 2889  2890  2893     1 
 2891  2890  2892     1 
 2891  2890  2893     1 
 2892  2890  2893     1 
 2890  2893  2894     1 
 2890  2893  2895     1 
 2890  2893  2913     1 
 2894  2893  2895     1 
 2894  2893  2913     1 
 2895  2893  2913     1 
 2893  2895  2896     1 
 2895  2896  2897     1 
 2895  2896  2898     1 
 2895  2896  2915     1 
 2897  2896  2898     1 
 2897  2896  2915     1 
 2898  2896  2915     1 
 2896  2898  2899     1 
 2896  2898  2912     1 
 2899  2898  2912     1 
 2898  2899  2900     1 
 2898  2899  2901     1 
 2900  2899  2901     1 
 2899  2901  2902     1 
 2901  2902  2903     1 
 2901  2902  2912     1 
 2903  2902  2912     1 
 2902  2903  2904     1 
 2902  2903  2905     1 
 2904  2903  2905     1 
 2903  2905  2906     1 
 2903  2905  2907     1 
 2906  2905  2907     1 
 2905  2907  2908     1 
 2905  2907  2911     1 
 2908  2907  2911     1 
 2907  2908  2909     1 
 2907  2908  2910     1 
 2909  2908  2910     1 
 2907  2911  2912     1 
 2898  2912  2902     1 
 2898  2912  2911     1 
 2902  2912  2911     1 
 2893  2913  2914     1 
 2893  2913  2915     1 
 2893  2913  2918     1 
 2914  2913  2915     1 
 2914  2913  2918     1 
 2915  2913  2918     1 
 2896  2915  2913     1 
 2896  2915  2916     1 
 2896  2915  2917     1 
 2913  2915  2916     1 
 2913  2915  2917     1 
 2916  2915  2917     1 
 2913  2918  2919     1 
 2918  2919  2920     1 
 2918  2919  2921     1 
 2918  2919  2922     1 
 2920  2919  2921     1 
 2920  2919  2922     1 
 2921  2919  2922     1 
 2919  2922  2923     1 
 2922  2923  2924     1 
 2922  2923  2925     1 
 2922  2923  2926     1 
 2924  2923  2925     1 
 2924  2923  2926     1 
 2925  2923  2926     1 
 2923  2926  2927     1 
 2923  2926  2928     1 
 2923  2926  2945     1 
 2927  2926  2928     1 
 2927  2926  2945     1 
 2928  2926  2945     1 
 2926  2928  2929     1 
 2928  2929  2930     1 
 2928  2929  2931     1 
 2928  2929  2947     1 
 2930  2929  2931     1 
 2930  2929  2947     1 
 2931  2929  2947     1 
 2929  2931  2932     1 
 2929  2931  2944     1 
 2932  2931  2944     1 
 2931  2932  2933     1 
 2931  2932  2934     1 
 2933  2932  2934     1 
 2932  2934  2935     1 
 2934  2935  2936     1 
 2934  2935  2944     1 
 2936  2935  2944     1 
 2935  2936  2937     1 
 2935  2936  2940     1 
 2937  2936  2940     1 
 2936  2937  2938     1 
 2936  2937  2939     1 
 2938  2937  2939     1 
 2936  2940  2941     1 
 2940  2941  2942     1 
 2940  2941  2943     1 
 2942  2941  2943     1 
 2941  2943  2944     1 
 2931  2944  2935     1 
 2931  2944  2943     1 
 2935  2944  2943     1 
 2926  2945  2946     1 
 2926  2945  2947     1 
 2926  2945  2950     1 
 2946  2945  2947     1 
 2946  2945  2950     1 
 2947  2945  2950     1 
 2929  2947  2945     1 
 2929  2947  2948     1 
 2929  2947  2949     1 
 2945  2947  2948     1 
 2945  2947  2949     1 
 2948  2947  2949     1 
 2945  2950  2951     1 
 2950  2951  2952     1 
 2950  2951  2953     1 
 2950  2951  2954     1 
 2952  2951  2953     1 
 2952  2951  2954     1 
 2953  2951  2954     1 
 2951  2954  2955     1 
 2954  2955  2956     1 
 2954  2955  2957     1 
 2954  2955  2958     1 
 2956  2955  2957     1 
 2956  2955  2958     1 
 2957  2955  2958     1 
 2955  2958  2959     1 
 2955  2958  2960     1 
 2955  2958  2978     1 
 2959  2958  2960     1 
 2959  2958  2978     1 
 2960  2958  2978     1 
 2958  2960  2961     1 
 2960  2961  2962     1 
 2960  2961  2963     1 
 2960  2961  2980     1 
 2962  2961  2963     1 
 2962  2961  2980     1 
 2963  2961  2980     1 
 2961  2963  2964     1 
 2961  2963  2977     1 
 2964  2963  2977     1 
 2963  2964  2965     1 
 2963  2964  2966     1 
 2965  2964  2966     1 
 2964  2966  2967     1 
 2966  2967  2968     1 
 2966  2967  2977     1 
 2968  2967  2977     1 
 2967  2968  2969     1 
 2967  2968  2970     1 
 2969  2968  2970     1 
 2968  2970  2971     1 
 2968  2970  2972     1 
 2971  2970  2972     1 
 2970  2972  2973     1 
 2970  2972  2976     1 
 2973  2972  2976     1 
 2972  2973  2974     1 
 2972  2973  2975     1 
 2974  2973  2975     1 
 2972  2976  2977     1 
 2963  2977  2967     1 
 2963  2977  2976     1 
 2967  2977  2976     1 
 2958  2978  2979     1 
 2958  2978  2980     1 
 2958  2978  2983     1 
 2979  2978  2980     1 
 2979  2978  2983     1 
 2980  2978  2983     1 
 2961  2980  2978     1 
 2961  2980  2981     1 
 2961  2980  2982     1 
 2978  2980  2981     1 
 2978  2980  2982     1 
 2981  2980  2982     1 
 2978  2983  2984     1 
 2983  2984  2985     1 
 2983  2984  2986     1 
 2983  2984  2987     1 
 2985  2984  2986     1 
 2985  2984  2987     1 
 2986  2984  2987     1 
 2984  2987  2988     1 
 2987  2988  2989     1 
 2987  2988  2990     1 
 2987  2988  2991     1 
 2989  2988  2990     1 
 2989  2988  2991     1 
 2990  2988  2991     1 
 2988  2991  2992     1 
 2988  2991  2993     1 
 2988  2991  3010     1 
 2992  2991  2993     1 
 2992  2991  3010     1 
 2993  2991  3010     1 
 2991  2993  2994     1 
 2993  2994  2995     1 
 2993  2994  2996     1 
 2993  2994  3012     1 
 2995  2994  2996     1 
 2995  2994  3012     1 
 2996  2994  3012     1 
 2994  2996  2997     1 
 2994  2996  3009     1 
 2997  2996  3009     1 
 2996  2997  2998     1 
 2996  2997  2999     1 
 2998  2997  2999     1 
 2997  2999  3000     1 
 2999  3000  3001     1 
 2999  3000  3009     1 
 3001  3000  3009     1 
 3000  3001  3002     1 
 3000  3001  3005     1 
 3002  3001  3005     1 
 3001  3002  3003     1 
 3001  3002  3004     1 
 3003  3002  3004     1 
 3001  3005  3006     1 
 3005  3006  3007     1 
 3005  3006  3008     1 
 3007  3006  3008     1 
 3006  3008  3009     1 
 2996  3009  3000     1 
 2996  3009  3008     1 
 3000  3009  3008     1 
 2991  3010  3011     1 
 2991  3010  3012     1 
 2991  3010  3015     1 
 3011  3010  3012     1 
 3011  3010  3015     1 
 3012  3010  3015     1 
 2994  3012  3010     1 
 2994  3012  3013     1 
 2994  3012  3014     1 
 3010  3012  3013     1 
 3010  3012  3014     1 
 3013  3012  3014     1 
 3010  3015  3016     1 
 3015  3016  3017     1 
 3015  3016  3018     1 
 3015  3016  3019     1 
 3017  3016  3018     1 
 3017  3016  3019     1 
 3018  3016  3019     1 
 3016  3019  3020     1 
 3019  3020  3021     1 
 3019  3020  3022     1 
 3019  3020  3023     1 
 3021  3020  3022     1 
 3021  3020  3023     1 
 3022  3020  3023     1 
 3020  3023  3024     1 
 3020  3023  3025     1 
 3020  3023  3043     1 
 3024  3023  3025     1 
 3024  3023  3043     1 
 3025  3023  3043     1 
 3023  3025  3026     1 
 3025  3026  3027     1 
 3025  3026  3028     1 
 3025  3026  3045     1 
 3027  3026  3028     1 
 3027  3026  3045     1 
 3028  3026  3045     1 
 3026  3028  3029     1 
 3026  3028  3042     1 
 3029  3028  3042     1 
 3028  3029  3030     1 
 3028  3029  3031     1 
 3030  3029  3031     1 
 3029  3031  3032     1 
 3031  3032  3033     1 
 3031  3032  3042     1 
 3033  3032  3042     1 
 3032  3033  3034     1 
 3032  3033  3035     1 
 3034  3033  3035     1 
 3033  3035  3036     1 
 3033  3035  3037     1 
 3036  3035  3037     1 
 3035  3037  3038     1 
 3035  3037  3041     1 
 3038  3037  3041     1 
 3037  3038  3039     1 
 3037  3038  3040     1 
 3039  3038  3040     1 
 3037  3041  3042     1 
 3028  3042  3032     1 
 3028  3042  3041     1 
 3032  3042  3041     1 
 3023  3043  3044     1 
 3023  3043  3045     1 
 3023  3043  3048     1 
 3044  3043  3045     1 
 3044  3043  3048     1 
 3045  3043  3048     1 
 3026  3045  3043     1 
 3026  3045  3046     1 
 3026  3045  3047     1 
 3043  3045  3046     1 
 3043  3045  3047     1 
 3046  3045  3047     1 
 3043  3048  3049     1 
 3048  3049  3050     1 
 3048  3049  3051     1 
 3048  3049  3052     1 
 3050  3049  3051     1 
 3050  3049  3052     1 
 3051  3049  3052     1 
 3049  3052  3053     1 
 3052  3053  3054     1 
 3052  3053  3055     1 
 3052  3053  3056     1 
 3054  3053  3055     1 
 3054  3053  3056     1 
 3055  3053  3056     1 
 3053  3056  3057     1 
 3053  3056  3058     1 
 3053  3056  3075     1 
 3057  3056  3058     1 
 3057  3056  3075     1 
 3058  3056  3075     1 
 3056  3058  3059     1 
 3058  3059  3060     1 
 3058  3059  3061     1 
 3058  3059  3077     1 
 3060  3059  3061     1 
 3060  3059  3077     1 
 3061  3059  3077     1 
 3059  3061  3062     1 
 3059  3061  3074     1 
 3062  3061  3074     1 
 3061  3062  3063     1 
 3061  3062  3064     1 
 3063  3062  3064     1 
 3062  3064  3065     1 
 3064  3065  3066     1 
 3064  3065  3074     1 
 3066  3065  3074     1 
 3065  3066  3067     1 
 3065  3066  3070     1 
 3067  3066  3070     1 
 3066  3067  3068     1 
 3066  3067  3069     1 
 3068  3067  3069     1 
 3066  3070  3071     1 
 3070  3071  3072     1 
 3070  3071  3073     1 
 3072  3071  3073     1 
 3071  3073  3074     1 
 3061  3074  3065     1 
 3061  3074  3073     1 
 3065  3074  3073     1 
 3056  3075  3076     1 
 3056  3075  3077     1 
 3056  3075  3080     1 
 3076  3075  3077     1 
 3076  3075  3080     1 
 3077  3075  3080     1 
 3059  3077  3075     1 
 3059  3077  3078     1 
 3059  3077  3079     1 
 3075  3077  3078     1 
 3075  3077  3079     1 
 3078  3077  3079     1 
 3075  3080  3081     1 
 3080  3081  3082     1 
 3080  3081  3083     1 
 3080  3081  3084     1 
 3082  3081  3083     1 
 3082  3081  3084     1 
 3083  3081  3084     1 
 3081  3084  3085     1 
 3084  3085  3086     1 
 3084  3085  3087     1 
 3084  3085  3088     1 
 3086  3085  3087     1 
 3086  3085  3088     1 
 3087  3085  3088     1 
 3085  3088  3089     1 
 3085  3088  3090     1 
 3085  3088  3108     1 
 3089  3088  3090     1 
 3089  3088  3108     1 
 3090  3088  3108     1 
 3088  3090  3091     1 
 3090  3091  3092     1 
 3090  3091  3093     1 
 3090  3091  3110     1 
 3092  3091  3093     1 
 3092  3091  3110     1 
 3093  3091  3110     1 
 3091  3093  3094     1 
 3091  3093  3107     1 
 3094  3093  3107     1 
 3093  3094  3095     1 
 3093  3094  3096     1 
 3095  3094  3096     1 
 3094  3096  3097     1 
 3096  3097  3098     1 
 3096  3097  3107     1 
 3098  3097  3107     1 
 3097  3098  3099     1 
 3097  3098  3100     1 
 3099  3098  3100     1 
 3098  3100  3101     1 
 3098  3100  3102     1 
 3101  3100  3102     1 
 3100  3102  3103     1 
 3100  3102  3106     1 
 3103  3102  3106     1 
 3102  3103  3104     1 
 3102  3103  3105     1 
 3104  3103  3105     1 
 3102  3106  3107     1 
 3093  3107  3097     1 
 3093  3107  3106     1 
 3097  3107  3106     1 
 3088  3108  3109     1 
 3088  3108  3110     1 
 3088  3108  3113     1 
 3109  3108  3110     1 
 3109  3108  3113     1 
 3110  3108  3113     1 
 3091  3110  3108     1 
 3091  3110  3111     1 
 3091  3110  3112     1 
 3108  3110  3111     1 
 3108  3110  3112     1 
 3111  3110  3112     1 
 3108  3113  3114     1 
 3113  3114  3115     1 
 3113  3114  3116     1 
 3113  3114  3117     1 
 3115  3114  3116     1 
 3115  3114  3117     1 
 3116  3114  3117     1 
 3114  3117  3118     1 
 3117  3118  3119     1 
 3117  3118  3120     1 
 3117  3118  3121     1 
 3119  3118  3120     1 
 3119  3118  3121     1 
 3120  3118  3121     1 
 3118  3121  3122     1 
 3118  3121  3123     1 
 3118  3121  3141     1 
 3122  3121  3123     1 
 3122  3121  3141     1 
 3123  3121  3141     1 
 3121  3123  3124     1 
 3123  3124  3125     1 
 3123  3124  3126     1 
 3123  3124  3143     1 
 3125  3124  3126     1 
 3125  3124  3143     1 
 3126  3124  3143     1 
 3124  3126  3127     1 
 3124  3126  3140     1 
 3127  3126  3140     1 
 3126  3127  3128     1 
 3126  3127  3129     1 
 3128  3127  3129     1 
 3127  3129  3130     1 
 3129  3130  3131     1 
 3129  3130  3140     1 
 3131  3130  3140     1 
 3130  3131  3132     1 
 3130  3131  3133     1 
 3132  3131  3133     1 
 3131  3133  3134     1 
 3131  3133  3135     1 
 3134  3133  3135     1 
 3133  3135  3136     1 
 3133  3135  3139     1 
 3136  3135  3139     1 
 3135  3136  3137     1 
 3135  3136  3138     1 
 3137  3136  3138     1 
 3135  3139  3140     1 
 3126  3140  3130     1 
 3126  3140  3139     1 
 3130  3140  3139     1 
 3121  3141  3142     1 
 3121  3141  3143     1 
 3121  3141  3146     1 
 3142  3141  3143     1 
 3142  3141  3146     1 
 3143  3141  3146     1 
 3124  3143  3141     1 
 3124  3143  3144     1 
 3124  3143  3145     1 
 3141  3143  3144     1 
 3141  3143  3145     1 
 3144  3143  3145     1 
 3141  3146  3147     1 
 3146  3147  3148     1 
 3146  3147  3149     1 
 3146  3147  3150     1 
 3148  3147  3149     1 
 3148  3147  3150     1 
 3149  3147  3150     1 
 3147  3150  3151     1 
 3150  3151  3152     1 
 3150  3151  3153     1 
 3150  3151  3154     1 
 3152  3151  3153     1 
 3152  3151  3154     1 
 3153  3151  3154     1 
 3151  3154  3155     1 
 3151  3154  3156     1 
 3151  3154  3173     1 
 3155  3154  3156     1 
 3155  3154  3173     1 
 3156  3154  3173     1 
 3154  3156  3157     1 
 3156  3157  3158     1 
 3156  3157  3159     1 
 3156  3157  3175     1 
 3158  3157  3159     1 
 3158  3157  3175     1 
 3159  3157  3175     1 
 3157  3159  3160     1 
 3157  3159  3171     1 
 3160  3159  3171     1 
 3159  3160  3161     1 
 3159  3160  3162     1 
 3161  3160  3162     1 
 3160  3162  3163     1 
 3160  3162  3167     1 
 3163  3162  3167     1 
 3162  3163  3164     1 
 3162  3163  3165     1 
 3162  3163  3166     1 
 3164  3163  3165     1 
 3164  3163  3166     1 
 3165  3163  3166     1 
 3162  3167  3168     1 
 3162  3167  3169     1 
 3168  3167  3169     1 
 3167  3169  3170     1 
 3167  3169  3171     1 
 3170  3169  3171     1 
 3159  3171  3169     1 
 3159  3171  3172     1 
 3169  3171  3172     1 
 3154  3173  3174     1 
 3154  3173  3175     1 
 3154  3173  3178     1 
 3174  3173  3175     1 
 3174  3173  3178     1 
 3175  3173  3178     1 
 3157  3175  3173     1 
 3157  3175  3176     1 
 3157  3175  3177     1 
 3173  3175  3176     1 
 3173  3175  3177     1 
 3176  3175  3177     1 
 3173  3178  3179     1 
 3178  3179  3180     1 
 3178  3179  3181     1 
 3178  3179  3182     1 
 3180  3179  3181     1 
 3180  3179  3182     1 
 3181  3179  3182     1 
 3179  3182  3183     1 
 3182  3183  3184     1 
 3182  3183  3185     1 
 3182  3183  3186     1 
 3184  3183  3185     1 
 3184  3183  3186     1 
 3185  3183  3186     1 
 3183  3186  3187     1 
 3183  3186  3188     1 
 3183  3186  3205     1 
 3187  3186  3188     1 
 3187  3186  3205     1 
 3188  3186  3205     1 
 3186  3188  3189     1 
 3188  3189  3190     1 
 3188  3189  3191     1 
 3188  3189  3207     1 
 3190  3189  3191     1 
 3190  3189  3207     1 
 3191  3189  3207     1 
 3189  3191  3192     1 
 3189  3191  3204     1 
 3192  3191  3204     1 
 3191  3192  3193     1 
 3191  3192  3194     1 
 3193  3192  3194     1 
 3192  3194  3195     1 
 3194  3195  3196     1 
 3194  3195  3204     1 
 3196  3195  3204     1 
 3195  3196  3197     1 
 3195  3196  3200     1 
 3197  3196  3200     1 
 3196  3197  3198     1 
 3196  3197  3199     1 
 3198  3197  3199     1 
 3196  3200  3201     1 
 3200  3201  3202     1 
 3200  3201  3203     1 
 3202  3201  3203     1 
 3201  3203  3204     1 
 3191  3204  3195     1 
 3191  3204  3203     1 
 3195  3204  3203     1 
 3186  3205  3206     1 
 3186  3205  3207     1 
 3186  3205  3210     1 
 3206  3205  3207     1 
 3206  3205  3210     1 
 3207  3205  3210     1 
 3189  3207  3205     1 
 3189  3207  3208     1 
 3189  3207  3209     1 
 3205  3207  3208     1 
 3205  3207  3209     1 
 3208  3207  3209     1 
 3205  3210  3211     1 
 3210  3211  3212     1 
 3210  3211  3213     1 
 3210  3211  3214     1 
 3212  3211  3213     1 
 3212  3211  3214     1 
 3213  3211  3214     1 
 3211  3214  3215     1 
 3214  3215  3216     1 
 3214  3215  3217     1 
 3214  3215  3218     1 
 3216  3215  3217     1 
 3216  3215  3218     1 
 3217  3215  3218     1 
 3215  3218  3219     1 
 3215  3218  3220     1 
 3215  3218  3235     1 
 3219  3218  3220     1 
 3219  3218  3235     1 
 3220  3218  3235     1 
 3218  3220  3221     1 
 3220  3221  3222     1 
 3220  3221  3223     1 
 3220  3221  3237     1 
 3222  3221  3223     1 
 3222  3221  3237     1 
 3223  3221  3237     1 
 3221  3223  3224     1 
 3221  3223  3233     1 
 3224  3223  3233     1 
 3223  3224  3225     1 
 3223  3224  3226     1 
 3225  3224  3226     1 
 3224  3226  3227     1 
 3224  3226  3228     1 
 3227  3226  3228     1 
 3226  3228  3229     1 
 3226  3228  3232     1 
 3229  3228  3232     1 
 3228  3229  3230     1 
 3228  3229  3231     1 
 3230  3229  3231     1 
 3228  3232  3233     1 
 3223  3233  3232     1 
 3223  3233  3234     1 
 3232  3233  3234     1 
 3218  3235  3236     1 
 3218  3235  3237     1 
 3218  3235  3240     1 
 3236  3235  3237     1 
 3236  3235  3240     1 
 3237  3235  3240     1 
 3221  3237  3235     1 
 3221  3237  3238     1 
 3221  3237  3239     1 
 3235  3237  3238     1 
 3235  3237  3239     1 
 3238  3237  3239     1 
 3235  3240  3241     1 
 3240  3241  3242     1 
 3240  3241  3243     1 
 3240  3241  3244     1 
 3242  3241  3243     1 
 3242  3241  3244     1 
 3243  3241  3244     1 
 3241  3244  3245     1 
 3244  3245  3246     1 
 3244  3245  3247     1 
 3244  3245  3248     1 
 3246  3245  3247     1 
 3246  3245  3248     1 
 3247  3245  3248     1 
 3245  3248  3249     1 
 3245  3248  3250     1 
 3245  3248  3268     1 
 3249  3248  3250     1 
 3249  3248  3268     1 
 3250  3248  3268     1 
 3248  3250  3251     1 
 3250  3251  3252     1 
 3250  3251  3253     1 
 3250  3251  3270     1 
 3252  3251  3253     1 
 3252  3251  3270     1 
 3253  3251  3270     1 
 3251  3253  3254     1 
 3251  3253  3267     1 
 3254  3253  3267     1 
 3253  3254  3255     1 
 3253  3254  3256     1 
 3255  3254  3256     1 
 3254  3256  3257     1 
 3256  3257  3258     1 
 3256  3257  3267     1 
 3258  3257  3267     1 
 3257  3258  3259     1 
 3257  3258  3260     1 
 3259  3258  3260     1 
 3258  3260  3261     1 
 3258  3260  3262     1 
 3261  3260  3262     1 
 3260  3262  3263     1 
 3260  3262  3266     1 
 3263  3262  3266     1 
 3262  3263  3264     1 
 3262  3263  3265     1 
 3264  3263  3265     1 
 3262  3266  3267     1 
 3253  3267  3257     1 
 3253  3267  3266     1 
 3257  3267  3266     1 
 3248  3268  3269     1 
 3248  3268  3270     1 
 3248  3268  3273     1 
 3269  3268  3270     1 
 3269  3268  3273     1 
 3270  3268  3273     1 
 3251  3270  3268     1 
 3251  3270  3271     1 
 3251  3270  3272     1 
 3268  3270  3271     1 
 3268  3270  3272     1 
 3271  3270  3272     1 
 3268  3273  3274     1 
 3273  3274  3275     1 
 3273  3274  3276     1 
 3273  3274  3277     1 
 3275  3274  3276     1 
 3275  3274  3277     1 
 3276  3274  3277     1 
 3274  3277  3278     1 
 3277  3278  3279     1 
 3277  3278  3280     1 
 3277  3278  3281     1 
 3279  3278  3280     1 
 3279  3278  3281     1 
 3280  3278  3281     1 
 3278  3281  3282     1 
 3278  3281  3283     1 
 3278  3281  3301     1 
 3282  3281  3283     1 
 3282  3281  3301     1 
 3283  3281  3301     1 
 3281  3283  3284     1 
 3283  3284  3285     1 
 3283  3284  3286     1 
 3283  3284  3303     1 
 3285  3284  3286     1 
 3285  3284  3303     1 
 3286  3284  3303     1 
 3284  3286  3287     1 
 3284  3286  3300     1 
 3287  3286  3300     1 
 3286  3287  3288     1 
 3286  3287  3289     1 
 3288  3287  3289     1 
 3287  3289  3290     1 
 3289  3290  3291     1 
 3289  3290  3300     1 
 3291  3290  3300     1 
 3290  3291  3292     1 
 3290  3291  3293     1 
 3292  3291  3293     1 
 3291  3293  3294     1 
 3291  3293  3295     1 
 3294  3293  3295     1 
 3293  3295  3296     1 
 3293  3295  3299     1 
 3296  3295  3299     1 
 3295  3296  3297     1 
 3295  3296  3298     1 
 3297  3296  3298     1 
 3295  3299  3300     1 
 3286  3300  3290     1 
 3286  3300  3299     1 
 3290  3300  3299     1 
 3281  3301  3302     1 
 3281  3301  3303     1 
 3281  3301  3306     1 
 3302  3301  3303     1 
 3302  3301  3306     1 
 3303  3301  3306     1 
 3284  3303  3301     1 
 3284  3303  3304     1 
 3284  3303  3305     1 
 3301  3303  3304     1 
 3301  3303  3305     1 
 3304  3303  3305     1 
 3301  3306  3307     1 
 3306  3307  3308     1 
 3306  3307  3309     1 
 3306  3307  3310     1 
 3308  3307  3309     1 
 3308  3307  3310     1 
 3309  3307  3310     1 
 3307  3310  3311     1 
 3310  3311  3312     1 
 3310  3311  3313     1 
 3310  3311  3314     1 
 3312  3311  3313     1 
 3312  3311  3314     1 
 3313  3311  3314     1 
 3311  3314  3315     1 
 3311  3314  3316     1 
 3311  3314  3333     1 
 3315  3314  3316     1 
 3315  3314  3333     1 
 3316  3314  3333     1 
 3314  3316  3317     1 
 3316  3317  3318     1 
 3316  3317  3319     1 
 3316  3317  3335     1 
 3318  3317  3319     1 
 3318  3317  3335     1 
 3319  3317  3335     1 
 3317  3319  3320     1 
 3317  3319  3332     1 
 3320  3319  3332     1 
 3319  3320  3321     1 
 3319  3320  3322     1 
 3321  3320  3322     1 
 3320  3322  3323     1 
 3322  3323  3324     1 
 3322  3323  3332     1 
 3324  3323  3332     1 
 3323  3324  3325     1 
 3323  3324  3328     1 
 3325  3324  3328     1 
 3324  3325  3326     1 
 3324  3325  3327     1 
 3326  3325  3327     1 
 3324  3328  3329     1 
 3328  3329  3330     1 
 3328  3329  3331     1 
 3330  3329  3331     1 
 3329  3331  3332     1 
 3319  3332  3323     1 
 3319  3332  3331     1 
 3323  3332  3331     1 
 3314  3333  3334     1 
 3314  3333  3335     1 
 3314  3333  3338     1 
 3334  3333  3335     1 
 3334  3333  3338     1 
 3335  3333  3338     1 
 3317  3335  3333     1 
 3317  3335  3336     1 
 3317  3335  3337     1 
 3333  3335  3336     1 
 3333  3335  3337     1 
 3336  3335  3337     1 
 3333  3338  3339     1 
 3338  3339  3340     1 
 3338  3339  3341     1 
 3338  3339  3342     1 
 3340  3339  3341     1 
 3340  3339  3342     1 
 3341  3339  3342     1 
 3339  3342  3343     1 
 3342  3343  3344     1 
 3342  3343  3345     1 
 3342  3343  3346     1 
 3344  3343  3345     1 
 3344  3343  3346     1 
 3345  3343  3346     1 
 3343  3346  3347     1 
 3343  3346  3348     1 
 3343  3346  3366     1 
 3347  3346  3348     1 
 3347  3346  3366     1 
 3348  3346  3366     1 
 3346  3348  3349     1 
 3348  3349  3350     1 
 3348  3349  3351     1 
 3348  3349  3368     1 
 3350  3349  3351     1 
 3350  3349  3368     1 
 3351  3349  3368     1 
 3349  3351  3352     1 
 3349  3351  3365     1 
 3352  3351  3365     1 
 3351  3352  3353     1 
 3351  3352  3354     1 
 3353  3352  3354     1 
 3352  3354  3355     1 
 3354  3355  3356     1 
 3354  3355  3365     1 
 3356  3355  3365     1 
 3355  3356  3357     1 
 3355  3356  3358     1 
 3357  3356  3358     1 
 3356  3358  3359     1 
 3356  3358  3360     1 
 3359  3358  3360     1 
 3358  3360  3361     1 
 3358  3360  3364     1 
 3361  3360  3364     1 
 3360  3361  3362     1 
 3360  3361  3363     1 
 3362  3361  3363     1 
 3360  3364  3365     1 
 3351  3365  3355     1 
 3351  3365  3364     1 
 3355  3365  3364     1 
 3346  3366  3367     1 
 3346  3366  3368     1 
 3346  3366  3371     1 
 3367  3366  3368     1 
 3367  3366  3371     1 
 3368  3366  3371     1 
 3349  3368  3366     1 
 3349  3368  3369     1 
 3349  3368  3370     1 
 3366  3368  3369     1 
 3366  3368  3370     1 
 3369  3368  3370     1 
 3366  3371  3372     1 
 3371  3372  3373     1 
 3371  3372  3374     1 
 3371  3372  3375     1 
 3373  3372  3374     1 
 3373  3372  3375     1 
 3374  3372  3375     1 
 3372  3375  3376     1 
 3375  3376  3377     1 
 3375  3376  3378     1 
 3375  3376  3379     1 
 3377  3376  3378     1 
 3377  3376  3379     1 
 3378  3376  3379     1 
 3376  3379  3380     1 
 3376  3379  3381     1 
 3376  3379  3396     1 
 3380  3379  3381     1 
 3380  3379  3396     1 
 3381  3379  3396     1 
 3379  3381  3382     1 
 3381  3382  3383     1 
 3381  3382  3384     1 
 3381  3382  3398     1 
 3383  3382  3384     1 
 3383  3382  3398     1 
 3384  3382  3398     1 
 3382  3384  3385     1 
 3382  3384  3394     1 
 3385  3384  3394     1 
 3384  3385  3386     1 
 3384  3385  3387     1 
 3386  3385  3387     1 
 3385  3387  3388     1 
 3385  3387  3389     1 
 3388  3387  3389     1 
 3387  3389  3390     1 
 3387  3389  3393     1 
 3390  3389  3393     1 
 3389  3390  3391     1 
 3389  3390  3392     1 
 3391  3390  3392     1 
 3389  3393  3394     1 
 3384  3394  3393     1 
 3384  3394  3395     1 
 3393  3394  3395     1 
 3379  3396  3397     1 
 3379  3396  3398     1 
 3379  3396  3401     1 
 3397  3396  3398     1 
 3397  3396  3401     1 
 3398  3396  3401     1 
 3382  3398  3396     1 
 3382  3398  3399     1 
 3382  3398  3400     1 
 3396  3398  3399     1 
 3396  3398  3400     1 
 3399  3398  3400     1 
 3396  3401  3402     1 
 3401  3402  3403     1 
 3401  3402  3404     1 
 3401  3402  3405     1 
 3403  3402  3404     1 
 3403  3402  3405     1 
 3404  3402  3405     1 
 3402  3405  3406     1 
 3405  3406  3407     1 
 3405  3406  3408     1 
 3405  3406  3409     1 
 3407  3406  3408     1 
 3407  3406  3409     1 
 3408  3406  3409     1 
 3406  3409  3410     1 
 3406  3409  3411     1 
 3406  3409  3429     1 
 3410  3409  3411     1 
 3410  3409  3429     1 
 3411  3409  3429     1 
 3409  3411  3412     1 
 3411  3412  3413     1 
 3411  3412  3414     1 
 3411  3412  3431     1 
 3413  3412  3414     1 
 3413  3412  3431     1 
 3414  3412  3431     1 
 3412  3414  3415     1 
 3412  3414  3428     1 
 3415  3414  3428     1 
 3414  3415  3416     1 
 3414  3415  3417     1 
 3416  3415  3417     1 
 3415  3417  3418     1 
 3417  3418  3419     1 
 3417  3418  3428     1 
 3419  3418  3428     1 
 3418  3419  3420     1 
 3418  3419  3421     1 
 3420  3419  3421     1 
 3419  3421  3422     1 
 3419  3421  3423     1 
 3422  3421  3423     1 
 3421  3423  3424     1 
 3421  3423  3427     1 
 3424  3423  3427     1 
 3423  3424  3425     1 
 3423  3424  3426     1 
 3425  3424  3426     1 
 3423  3427  3428     1 
 3414  3428  3418     1 
 3414  3428  3427     1 
 3418  3428  3427     1 
 3409  3429  3430     1 
 3409  3429  3431     1 
 3409  3429  3434     1 
 3430  3429  3431     1 
 3430  3429  3434     1 
 3431  3429  3434     1 
 3412  3431  3429     1 
 3412  3431  3432     1 
 3412  3431  3433     1 
 3429  3431  3432     1 
 3429  3431  3433     1 
 3432  3431  3433     1 
 3429  3434  3435     1 
 3434  3435  3436     1 
 3434  3435  3437     1 
 3434  3435  3438     1 
 3436  3435  3437     1 
 3436  3435  3438     1 
 3437  3435  3438     1 
 3435  3438  3439     1 
 3438  3439  3440     1 
 3438  3439  3441     1 
 3438  3439  3442     1 
 3440  3439  3441     1 
 3440  3439  3442     1 
 3441  3439  3442     1 
 3439  3442  3443     1 
 3439  3442  3444     1 
 3439  3442  3462     1 
 3443  3442  3444     1 
 3443  3442  3462     1 
 3444  3442  3462     1 
 3442  3444  3445     1 
 3444  3445  3446     1 
 3444  3445  3447     1 
 3444  3445  3464     1 
 3446  3445  3447     1 
 3446  3445  3464     1 
 3447  3445  3464     1 
 3445  3447  3448     1 
 3445  3447  3461     1 
 3448  3447  3461     1 
 3447  3448  3449     1 
 3447  3448  3450     1 
 3449  3448  3450     1 
 3448  3450  3451     1 
 3450  3451  3452     1 
 3450  3451  3461     1 
 3452  3451  3461     1 
 3451  3452  3453     1 
 3451  3452  3454     1 
 3453  3452  3454     1 
 3452  3454  3455     1 
 3452  3454  3456     1 
 3455  3454  3456     1 
 3454  3456  3457     1 
 3454  3456  3460     1 
 3457  3456  3460     1 
 3456  3457  3458     1 
 3456  3457  3459     1 
 3458  3457  3459     1 
 3456  3460  3461     1 
 3447  3461  3451     1 
 3447  3461  3460     1 
 3451  3461  3460     1 
 3442  3462  3463     1 
 3442  3462  3464     1 
 3442  3462  3467     1 
 3463  3462  3464     1 
 3463  3462  3467     1 
 3464  3462  3467     1 
 3445  3464  3462     1 
 3445  3464  3465     1 
 3445  3464  3466     1 
 3462  3464  3465     1 
 3462  3464  3466     1 
 3465  3464  3466     1 
 3462  3467  3468     1 
 3467  3468  3469     1 
 3467  3468  3470     1 
 3467  3468  3471     1 
 3469  3468  3470     1 
 3469  3468  3471     1 
 3470  3468  3471     1 
 3468  3471  3472     1 
 3471  3472  3473     1 
 3471  3472  3474     1 
 3471  3472  3475     1 
 3473  3472  3474     1 
 3473  3472  3475     1 
 3474  3472  3475     1 
 3472  3475  3476     1 
 3472  3475  3477     1 
 3472  3475  3494     1 
 3476  3475  3477     1 
 3476  3475  3494     1 
 3477  3475  3494     1 
 3475  3477  3478     1 
 3477  3478  3479     1 
 3477  3478  3480     1 
 3477  3478  3496     1 
 3479  3478  3480     1 
 3479  3478  3496     1 
 3480  3478  3496     1 
 3478  3480  3481     1 
 3478  3480  3493     1 
 3481  3480  3493     1 
 3480  3481  3482     1 
 3480  3481  3483     1 
 3482  3481  3483     1 
 3481  3483  3484     1 
 3483  3484  3485     1 
 3483  3484  3493     1 
 3485  3484  3493     1 
 3484  3485  3486     1 
 3484  3485  3489     1 
 3486  3485  3489     1 
 3485  3486  3487     1 
 3485  3486  3488     1 
 3487  3486  3488     1 
 3485  3489  3490     1 
 3489  3490  3491     1 
 3489  3490  3492     1 
 3491  3490  3492     1 
 3490  3492  3493     1 
 3480  3493  3484     1 
 3480  3493  3492     1 
 3484  3493  3492     1 
 3475  3494  3495     1 
 3475  3494  3496     1 
 3475  3494  3499     1 
 3495  3494  3496     1 
 3495  3494  3499     1 
 3496  3494  3499     1 
 3478  3496  3494     1 
 3478  3496  3497     1 
 3478  3496  3498     1 
 3494  3496  3497     1 
 3494  3496  3498     1 
 3497  3496  3498     1 
 3494  3499  3500     1 
 3499  3500  3501     1 
 3499  3500  3502     1 
 3499  3500  3503     1 
 3501  3500  3502     1 
 3501  3500  3503     1 
 3502  3500  3503     1 
 3500  3503  3504     1 
 3503  3504  3505     1 
 3503  3504  3506     1 
 3503  3504  3507     1 
 3505  3504  3506     1 
 3505  3504  3507     1 
 3506  3504  3507     1 
 3504  3507  3508     1 
 3504  3507  3509     1 
 3504  3507  3524     1 
 3508  3507  3509     1 
 3508  3507  3524     1 
 3509  3507  3524     1 
 3507  3509  3510     1 
 3509  3510  3511     1 
 3509  3510  3512     1 
 3509  3510  3526     1 
 3511  3510  3512     1 
 3511  3510  3526     1 
 3512  3510  3526     1 
 3510  3512  3513     1 
 3510  3512  3522     1 
 3513  3512  3522     1 
 3512  3513  3514     1 
 3512  3513  3515     1 
 3514  3513  3515     1 
 3513  3515  3516     1 
 3513  3515  3517     1 
 3516  3515  3517     1 
 3515  3517  3518     1 
 3515  3517  3521     1 
 3518  3517  3521     1 
 3517  3518  3519     1 
 3517  3518  3520     1 
 3519  3518  3520     1 
 3517  3521  3522     1 
 3512  3522  3521     1 
 3512  3522  3523     1 
 3521  3522  3523     1 
 3507  3524  3525     1 
 3507  3524  3526     1 
 3507  3524  3529     1 
 3525  3524  3526     1 
 3525  3524  3529     1 
 3526  3524  3529     1 
 3510  3526  3524     1 
 3510  3526  3527     1 
 3510  3526  3528     1 
 3524  3526  3527     1 
 3524  3526  3528     1 
 3527  3526  3528     1 
 3524  3529  3530     1 
 3529  3530  3531     1 
 3529  3530  3532     1 
 3529  3530  3533     1 
 3531  3530  3532     1 
 3531  3530  3533     1 
 3532  3530  3533     1 
 3530  3533  3534     1 
 3533  3534  3535     1 
 3533  3534  3536     1 
 3533  3534  3537     1 
 3535  3534  3536     1 
 3535  3534  3537     1 
 3536  3534  3537     1 
 3534  3537  3538     1 
 3534  3537  3539     1 
 3534  3537  3554     1 
 3538  3537  3539     1 
 3538  3537  3554     1 
 3539  3537  3554     1 
 3537  3539  3540     1 
 3539  3540  3541     1 
 3539  3540  3542     1 
 3539  3540  3556     1 
 3541  3540  3542     1 
 3541  3540  3556     1 
 3542  3540  3556     1 
 3540  3542  3543     1 
 3540  3542  3552     1 
 3543  3542  3552     1 
 3542  3543  3544     1 
 3542  3543  3545     1 
 3544  3543  3545     1 
 3543  3545  3546     1 
 3543  3545  3547     1 
 3546  3545  3547     1 
 3545  3547  3548     1 
 3545  3547  3551     1 
 3548  3547  3551     1 
 3547  3548  3549     1 
 3547  3548  3550     1 
 3549  3548  3550     1 
 3547  3551  3552     1 
 3542  3552  3551     1 
 3542  3552  3553     1 
 3551  3552  3553     1 
 3537  3554  3555     1 
 3537  3554  3556     1 
 3537  3554  3559     1 
 3555  3554  3556     1 
 3555  3554  3559     1 
 3556  3554  3559     1 
 3540  3556  3554     1 
 3540  3556  3557     1 
 3540  3556  3558     1 
 3554  3556  3557     1 
 3554  3556  3558     1 
 3557  3556  3558     1 
 3554  3559  3560     1 
 3559  3560  3561     1 
 3559  3560  3562     1 
 3559  3560  3563     1 
 3561  3560  3562     1 
 3561  3560  3563     1 
 3562  3560  3563     1 
 3560  3563  3564     1 
 3563  3564  3565     1 
 3563  3564  3566     1 
 3563  3564  3567     1 
 3565  3564  3566     1 
 3565  3564  3567     1 
 3566  3564  3567     1 
 3564  3567  3568     1 
 3564  3567  3569     1 
 3564  3567  3586     1 
 3568  3567  3569     1 
 3568  3567  3586     1 
 3569  3567  3586     1 
 3567  3569  3570     1 
 3569  3570  3571     1 
 3569  3570  3572     1 
 3569  3570  3588     1 
 3571  3570  3572     1 
 3571  3570  3588     1 
 3572  3570  3588     1 
 3570  3572  3573     1 
 3570  3572  3585     1 
 3573  3572  3585     1 
 3572  3573  3574     1 
 3572  3573  3575     1 
 3574  3573  3575     1 
 3573  3575  3576     1 
 3575  3576  3577     1 
 3575  3576  3585     1 
 3577  3576  3585     1 
 3576  3577  3578     1 
 3576  3577  3581     1 
 3578  3577  3581     1 
 3577  3578  3579     1 
 3577  3578  3580     1 
 3579  3578  3580     1 
 3577  3581  3582     1 
 3581  3582  3583     1 
 3581  3582  3584     1 
 3583  3582  3584     1 
 3582  3584  3585     1 
 3572  3585  3576     1 
 3572  3585  3584     1 
 3576  3585  3584     1 
 3567  3586  3587     1 
 3567  3586  3588     1 
 3567  3586  3591     1 
 3587  3586  3588     1 
 3587  3586  3591     1 
 3588  3586  3591     1 
 3570  3588  3586     1 
 3570  3588  3589     1 
 3570  3588  3590     1 
 3586  3588  3589     1 
 3586  3588  3590     1 
 3589  3588  3590     1 
 3586  3591  3592     1 
 3591  3592  3593     1 
 3591  3592  3594     1 
 3591  3592  3595     1 
 3593  3592  3594     1 
 3593  3592  3595     1 
 3594  3592  3595     1 
 3592  3595  3596     1 
 3595  3596  3597     1 
 3595  3596  3598     1 
 3595  3596  3599     1 
 3597  3596  3598     1 
 3597  3596  3599     1 
 3598  3596  3599     1 
 3596  3599  3600     1 
 3596  3599  3601     1 
 3596  3599  3616     1 
 3600  3599  3601     1 
 3600  3599  3616     1 
 3601  3599  3616     1 
 3599  3601  3602     1 
 3601  3602  3603     1 
 3601  3602  3604     1 
 3601  3602  3618     1 
 3603  3602  3604     1 
 3603  3602  3618     1 
 3604  3602  3618     1 
 3602  3604  3605     1 
 3602  3604  3614     1 
 3605  3604  3614     1 
 3604  3605  3606     1 
 3604  3605  3607     1 
 3606  3605  3607     1 
 3605  3607  3608     1 
 3605  3607  3609     1 
 3608  3607  3609     1 
 3607  3609  3610     1 
 3607  3609  3613     1 
 3610  3609  3613     1 
 3609  3610  3611     1 
 3609  3610  3612     1 
 3611  3610  3612     1 
 3609  3613  3614     1 
 3604  3614  3613     1 
 3604  3614  3615     1 
 3613  3614  3615     1 
 3599  3616  3617     1 
 3599  3616  3618     1 
 3599  3616  3621     1 
 3617  3616  3618     1 
 3617  3616  3621     1 
 3618  3616  3621     1 
 3602  3618  3616     1 
 3602  3618  3619     1 
 3602  3618  3620     1 
 3616  3618  3619     1 
 3616  3618  3620     1 
 3619  3618  3620     1 
 3616  3621  3622     1 
 3621  3622  3623     1 
 3621  3622  3624     1 
 3621  3622  3625     1 
 3623  3622  3624     1 
 3623  3622  3625     1 
 3624  3622  3625     1 
 3622  3625  3626     1 
 3625  3626  3627     1 
 3625  3626  3628     1 
 3625  3626  3629     1 
 3627  3626  3628     1 
 3627  3626  3629     1 
 3628  3626  3629     1 
 3626  3629  3630     1 
 3626  3629  3631     1 
 3626  3629  3646     1 
 3630  3629  3631     1 
 3630  3629  3646     1 
 3631  3629  3646     1 
 3629  3631  3632     1 
 3631  3632  3633     1 
 3631  3632  3634     1 
 3631  3632  3648     1 
 3633  3632  3634     1 
 3633  3632  3648     1 
 3634  3632  3648     1 
 3632  3634  3635     1 
 3632  3634  3644     1 
 3635  3634  3644     1 
 3634  3635  3636     1 
 3634  3635  3637     1 
 3636  3635  3637     1 
 3635  3637  3638     1 
 3635  3637  3639     1 
 3638  3637  3639     1 
 3637  3639  3640     1 
 3637  3639  3643     1 
 3640  3639  3643     1 
 3639  3640  3641     1 
 3639  3640  3642     1 
 3641  3640  3642     1 
 3639  3643  3644     1 
 3634  3644  3643     1 
 3634  3644  3645     1 
 3643  3644  3645     1 
 3629  3646  3647     1 
 3629  3646  3648     1 
 3629  3646  3651     1 
 3647  3646  3648     1 
 3647  3646  3651     1 
 3648  3646  3651     1 
 3632  3648  3646     1 
 3632  3648  3649     1 
 3632  3648  3650     1 
 3646  3648  3649     1 
 3646  3648  3650     1 
 3649  3648  3650     1 
 3646  3651  3652     1 
 3651  3652  3653     1 
 3651  3652  3654     1 
 3651  3652  3655     1 
 3653  3652  3654     1 
 3653  3652  3655     1 
 3654  3652  3655     1 
 3652  3655  3656     1 
 3655  3656  3657     1 
 3655  3656  3658     1 
 3655  3656  3659     1 
 3657  3656  3658     1 
 3657  3656  3659     1 
 3658  3656  3659     1 
 3656  3659  3660     1 
 3656  3659  3661     1 
 3656  3659  3676     1 
 3660  3659  3661     1 
 3660  3659  3676     1 
 3661  3659  3676     1 
 3659  3661  3662     1 
 3661  3662  3663     1 
 3661  3662  3664     1 
 3661  3662  3678     1 
 3663  3662  3664     1 
 3663  3662  3678     1 
 3664  3662  3678     1 
 3662  3664  3665     1 
 3662  3664  3674     1 
 3665  3664  3674     1 
 3664  3665  3666     1 
 3664  3665  3667     1 
 3666  3665  3667     1 
 3665  3667  3668     1 
 3665  3667  3669     1 
 3668  3667  3669     1 
 3667  3669  3670     1 
 3667  3669  3673     1 
 3670  3669  3673     1 
 3669  3670  3671     1 
 3669  3670  3672     1 
 3671  3670  3672     1 
 3669  3673  3674     1 
 3664  3674  3673     1 
 3664  3674  3675     1 
 3673  3674  3675     1 
 3659  3676  3677     1 
 3659  3676  3678     1 
 3659  3676  3681     1 
 3677  3676  3678     1 
 3677  3676  3681     1 
 3678  3676  3681     1 
 3662  3678  3676     1 
 3662  3678  3679     1 
 3662  3678  3680     1 
 3676  3678  3679     1 
 3676  3678  3680     1 
 3679  3678  3680     1 
 3676  3681  3682     1 
 3681  3682  3683     1 
 3681  3682  3684     1 
 3681  3682  3685     1 
 3683  3682  3684     1 
 3683  3682  3685     1 
 3684  3682  3685     1 
 3682  3685  3686     1 
 3685  3686  3687     1 
 3685  3686  3688     1 
 3685  3686  3689     1 
 3687  3686  3688     1 
 3687  3686  3689     1 
 3688  3686  3689     1 
 3686  3689  3690     1 
 3686  3689  3691     1 
 3686  3689  3706     1 
 3690  3689  3691     1 
 3690  3689  3706     1 
 3691  3689  3706     1 
 3689  3691  3692     1 
 3691  3692  3693     1 
 3691  3692  3694     1 
 3691  3692  3708     1 
 3693  3692  3694     1 
 3693  3692  3708     1 
 3694  3692  3708     1 
 3692  3694  3695     1 
 3692  3694  3704     1 
 3695  3694  3704     1 
 3694  3695  3696     1 
 3694  3695  3697     1 
 3696  3695  3697     1 
 3695  3697  3698     1 
 3695  3697  3699     1 
 3698  3697  3699     1 
 3697  3699  3700     1 
 3697  3699  3703     1 
 3700  3699  3703     1 
 3699  3700  3701     1 
 3699  3700  3702     1 
 3701  3700  3702     1 
 3699  3703  3704     1 
 3694  3704  3703     1 
 3694  3704  3705     1 
 3703  3704  3705     1 
 3689  3706  3707     1 
 3689  3706  3708     1 
 3689  3706  3711     1 
 3707  3706  3708     1 
 3707  3706  3711     1 
 3708  3706  3711     1 
 3692  3708  3706     1 
 3692  3708  3709     1 
 3692  3708  3710     1 
 3706  3708  3709     1 
 3706  3708  3710     1 
 3709  3708  3710     1 
 3706  3711  3712     1 
 3711  3712  3713     1 
 3711  3712  3714     1 
 3711  3712  3715     1 
 3713  3712  3714     1 
 3713  3712  3715     1 
 3714  3712  3715     1 
 3712  3715  3716     1 
 3715  3716  3717     1 
 3715  3716  3718     1 
 3715  3716  3719     1 
 3717  3716  3718     1 
 3717  3716  3719     1 
 3718  3716  3719     1 
 3716  3719  3720     1 
 3716  3719  3721     1 
 3716  3719  3738     1 
 3720  3719  3721     1 
 3720  3719  3738     1 
 3721  3719  3738     1 
 3719  3721  3722     1 
 3721  3722  3723     1 
 3721  3722  3724     1 
 3721  3722  3740     1 
 3723  3722  3724     1 
 3723  3722  3740     1 
 3724  3722  3740     1 
 3722  3724  3725     1 
 3722  3724  3736     1 
 3725  3724  3736     1 
 3724  3725  3726     1 
 3724  3725  3727     1 
 3726  3725  3727     1 
 3725  3727  3728     1 
 3725  3727  3732     1 
 3728  3727  3732     1 
 3727  3728  3729     1 
 3727  3728  3730     1 
 3727  3728  3731     1 
 3729  3728  3730     1 
 3729  3728  3731     1 
 3730  3728  3731     1 
 3727  3732  3733     1 
 3727  3732  3734     1 
 3733  3732  3734     1 
 3732  3734  3735     1 
 3732  3734  3736     1 
 3735  3734  3736     1 
 3724  3736  3734     1 
 3724  3736  3737     1 
 3734  3736  3737     1 
 3719  3738  3739     1 
 3719  3738  3740     1 
 3719  3738  3743     1 
 3739  3738  3740     1 
 3739  3738  3743     1 
 3740  3738  3743     1 
 3722  3740  3738     1 
 3722  3740  3741     1 
 3722  3740  3742     1 
 3738  3740  3741     1 
 3738  3740  3742     1 
 3741  3740  3742     1 
 3738  3743  3744     1 
 3743  3744  3745     1 
 3743  3744  3746     1 
 3743  3744  3747     1 
 3745  3744  3746     1 
 3745  3744  3747     1 
 3746  3744  3747     1 
 3744  3747  3748     1 
 3747  3748  3749     1 
 3747  3748  3750     1 
 3747  3748  3751     1 
 3749  3748  3750     1 
 3749  3748  3751     1 
 3750  3748  3751     1 
 3748  3751  3752     1 
 3748  3751  3753     1 
 3748  3751  3768     1 
 3752  3751  3753     1 
 3752  3751  3768     1 
 3753  3751  3768     1 
 3751  3753  3754     1 
 3753  3754  3755     1 
 3753  3754  3756     1 
 3753  3754  3770     1 
 3755  3754  3756     1 
 3755  3754  3770     1 
 3756  3754  3770     1 
 3754  3756  3757     1 
 3754  3756  3766     1 
 3757  3756  3766     1 
 3756  3757  3758     1 
 3756  3757  3759     1 
 3758  3757  3759     1 
 3757  3759  3760     1 
 3757  3759  3761     1 
 3760  3759  3761     1 
 3759  3761  3762     1 
 3759  3761  3765     1 
 3762  3761  3765     1 
 3761  3762  3763     1 
 3761  3762  3764     1 
 3763  3762  3764     1 
 3761  3765  3766     1 
 3756  3766  3765     1 
 3756  3766  3767     1 
 3765  3766  3767     1 
 3751  3768  3769     1 
 3751  3768  3770     1 
 3751  3768  3773     1 
 3769  3768  3770     1 
 3769  3768  3773     1 
 3770  3768  3773     1 
 3754  3770  3768     1 
 3754  3770  3771     1 
 3754  3770  3772     1 
 3768  3770  3771     1 
 3768  3770  3772     1 
 3771  3770  3772     1 
 3768  3773  3774     1 
 3773  3774  3775     1 
 3773  3774  3776     1 
 3773  3774  3777     1 
 3775  3774  3776     1 
 3775  3774  3777     1 
 3776  3774  3777     1 
 3774  3777  3778     1 
 3777  3778  3779     1 
 3777  3778  3780     1 
 3777  3778  3781     1 
 3779  3778  3780     1 
 3779  3778  3781     1 
 3780  3778  3781     1 
 3778  3781  3782     1 
 3778  3781  3783     1 
 3778  3781  3798     1 
 3782  3781  3783     1 
 3782  3781  3798     1 
 3783  3781  3798     1 
 3781  3783  3784     1 
 3783  3784  3785     1 
 3783  3784  3786     1 
 3783  3784  3800     1 
 3785  3784  3786     1 
 3785  3784  3800     1 
 3786  3784  3800     1 
 3784  3786  3787     1 
 3784  3786  3796     1 
 3787  3786  3796     1 
 3786  3787  3788     1 
 3786  3787  3789     1 
 3788  3787  3789     1 
 3787  3789  3790     1 
 3787  3789  3791     1 
 3790  3789  3791     1 
 3789  3791  3792     1 
 3789  3791  3795     1 
 3792  3791  3795     1 
 3791  3792  3793     1 
 3791  3792  3794     1 
 3793  3792  3794     1 
 3791  3795  3796     1 
 3786  3796  3795     1 
 3786  3796  3797     1 
 3795  3796  3797     1 
 3781  3798  3799     1 
 3781  3798  3800     1 
 3781  3798  3803     1 
 3799  3798  3800     1 
 3799  3798  3803     1 
 3800  3798  3803     1 
 3784  3800  3798     1 
 3784  3800  3801     1 
 3784  3800  3802     1 
 3798  3800  3801     1 
 3798  3800  3802     1 
 3801  3800  3802     1 
 3798  3803  3804     1 
 3803  3804  3805     1 
 3803  3804  3806     1 
 3803  3804  3807     1 
 3805  3804  3806     1 
 3805  3804  3807     1 
 3806  3804  3807     1 
 3804  3807  3808     1 
 3807  3808  3809     1 
 3807  3808  3810     1 
 3807  3808  3811     1 
 3809  3808  3810     1 
 3809  3808  3811     1 
 3810  3808  3811     1 
 3808  3811  3812     1 
 3808  3811  3813     1 
 3808  3811  3830     1 
 3812  3811  3813     1 
 3812  3811  3830     1 
 3813  3811  3830     1 
 3811  3813  3814     1 
 3813  3814  3815     1 
 3813  3814  3816     1 
 3813  3814  3832     1 
 3815  3814  3816     1 
 3815  3814  3832     1 
 3816  3814  3832     1 
 3814  3816  3817     1 
 3814  3816  3828     1 
 3817  3816  3828     1 
 3816  3817  3818     1 
 3816  3817  3819     1 
 3818  3817  3819     1 
 3817  3819  3820     1 
 3817  3819  3824     1 
 3820  3819  3824     1 
 3819  3820  3821     1 
 3819  3820  3822     1 
 3819  3820  3823     1 
 3821  3820  3822     1 
 3821  3820  3823     1 
 3822  3820  3823     1 
 3819  3824  3825     1 
 3819  3824  3826     1 
 3825  3824  3826     1 
 3824  3826  3827     1 
 3824  3826  3828     1 
 3827  3826  3828     1 
 3816  3828  3826     1 
 3816  3828  3829     1 
 3826  3828  3829     1 
 3811  3830  3831     1 
 3811  3830  3832     1 
 3811  3830  3835     1 
 3831  3830  3832     1 
 3831  3830  3835     1 
 3832  3830  3835     1 
 3814  3832  3830     1 
 3814  3832  3833     1 
 3814  3832  3834     1 
 3830  3832  3833     1 
 3830  3832  3834     1 
 3833  3832  3834     1 
 3830  3835  3836     1 
 3835  3836  3837     1 
 3835  3836  3838     1 
 3835  3836  3839     1 
 3837  3836  3838     1 
 3837  3836  3839     1 
 3838  3836  3839     1 
 3836  3839  3840     1 
 3839  3840  3841     1 
 3839  3840  3842     1 
 3839  3840  3843     1 
 3841  3840  3842     1 
 3841  3840  3843     1 
 3842  3840  3843     1 
 3840  3843  3844     1 
 3840  3843  3845     1 
 3840  3843  3863     1 
 3844  3843  3845     1 
 3844  3843  3863     1 
 3845  3843  3863     1 
 3843  3845  3846     1 
 3845  3846  3847     1 
 3845  3846  3848     1 
 3845  3846  3865     1 
 3847  3846  3848     1 
 3847  3846  3865     1 
 3848  3846  3865     1 
 3846  3848  3849     1 
 3846  3848  3862     1 
 3849  3848  3862     1 
 3848  3849  3850     1 
 3848  3849  3851     1 
 3850  3849  3851     1 
 3849  3851  3852     1 
 3851  3852  3853     1 
 3851  3852  3862     1 
 3853  3852  3862     1 
 3852  3853  3854     1 
 3852  3853  3855     1 
 3854  3853  3855     1 
 3853  3855  3856     1 
 3853  3855  3857     1 
 3856  3855  3857     1 
 3855  3857  3858     1 
 3855  3857  3861     1 
 3858  3857  3861     1 
 3857  3858  3859     1 
 3857  3858  3860     1 
 3859  3858  3860     1 
 3857  3861  3862     1 
 3848  3862  3852     1 
 3848  3862  3861     1 
 3852  3862  3861     1 
 3843  3863  3864     1 
 3843  3863  3865     1 
 3843  3863  3868     1 
 3864  3863  3865     1 
 3864  3863  3868     1 
 3865  3863  3868     1 
 3846  3865  3863     1 
 3846  3865  3866     1 
 3846  3865  3867     1 
 3863  3865  3866     1 
 3863  3865  3867     1 
 3866  3865  3867     1 
 3863  3868  3869     1 
 3868  3869  3870     1 
 3868  3869  3871     1 
 3868  3869  3872     1 
 3870  3869  3871     1 
 3870  3869  3872     1 
 3871  3869  3872     1 
 3869  3872  3873     1 
 3872  3873  3874     1 
 3872  3873  3875     1 
 3872  3873  3876     1 
 3874  3873  3875     1 
 3874  3873  3876     1 
 3875  3873  3876     1 
 3873  3876  3877     1 
 3873  3876  3878     1 
 3873  3876  3896     1 
 3877  3876  3878     1 
 3877  3876  3896     1 
 3878  3876  3896     1 
 3876  3878  3879     1 
 3878  3879  3880     1 
 3878  3879  3881     1 
 3878  3879  3898     1 
 3880  3879  3881     1 
 3880  3879  3898     1 
 3881  3879  3898     1 
 3879  3881  3882     1 
 3879  3881  3895     1 
 3882  3881  3895     1 
 3881  3882  3883     1 
 3881  3882  3884     1 
 3883  3882  3884     1 
 3882  3884  3885     1 
 3884  3885  3886     1 
 3884  3885  3895     1 
 3886  3885  3895     1 
 3885  3886  3887     1 
 3885  3886  3888     1 
 3887  3886  3888     1 
 3886  3888  3889     1 
 3886  3888  3890     1 
 3889  3888  3890     1 
 3888  3890  3891     1 
 3888  3890  3894     1 
 3891  3890  3894     1 
 3890  3891  3892     1 
 3890  3891  3893     1 
 3892  3891  3893     1 
 3890  3894  3895     1 
 3881  3895  3885     1 
 3881  3895  3894     1 
 3885  3895  3894     1 
 3876  3896  3897     1 
 3876  3896  3898     1 
 3876  3896  3901     1 
 3897  3896  3898     1 
 3897  3896  3901     1 
 3898  3896  3901     1 
 3879  3898  3896     1 
 3879  3898  3899     1 
 3879  3898  3900     1 
 3896  3898  3899     1 
 3896  3898  3900     1 
 3899  3898  3900     1 
 3896  3901  3902     1 
 3901  3902  3903     1 
 3901  3902  3904     1 
 3901  3902  3905     1 
 3903  3902  3904     1 
 3903  3902  3905     1 
 3904  3902  3905     1 
 3902  3905  3906     1 
 3905  3906  3907     1 
 3905  3906  3908     1 
 3905  3906  3909     1 
 3907  3906  3908     1 
 3907  3906  3909     1 
 3908  3906  3909     1 
 3906  3909  3910     1 
 3906  3909  3911     1 
 3906  3909  3929     1 
 3910  3909  3911     1 
 3910  3909  3929     1 
 3911  3909  3929     1 
 3909  3911  3912     1 
 3911  3912  3913     1 
 3911  3912  3914     1 
 3911  3912  3931     1 
 3913  3912  3914     1 
 3913  3912  3931     1 
 3914  3912  3931     1 
 3912  3914  3915     1 
 3912  3914  3928     1 
 3915  3914  3928     1 
 3914  3915  3916     1 
 3914  3915  3917     1 
 3916  3915  3917     1 
 3915  3917  3918     1 
 3917  3918  3919     1 
 3917  3918  3928     1 
 3919  3918  3928     1 
 3918  3919  3920     1 
 3918  3919  3921     1 
 3920  3919  3921     1 
 3919  3921  3922     1 
 3919  3921  3923     1 
 3922  3921  3923     1 
 3921  3923  3924     1 
 3921  3923  3927     1 
 3924  3923  3927     1 
 3923  3924  3925     1 
 3923  3924  3926     1 
 3925  3924  3926     1 
 3923  3927  3928     1 
 3914  3928  3918     1 
 3914  3928  3927     1 
 3918  3928  3927     1 
 3909  3929  3930     1 
 3909  3929  3931     1 
 3909  3929  3934     1 
 3930  3929  3931     1 
 3930  3929  3934     1 
 3931  3929  3934     1 
 3912  3931  3929     1 
 3912  3931  3932     1 
 3912  3931  3933     1 
 3929  3931  3932     1 
 3929  3931  3933     1 
 3932  3931  3933     1 
 3929  3934  3935     1 
 3934  3935  3936     1 
 3934  3935  3937     1 
 3934  3935  3938     1 
 3936  3935  3937     1 
 3936  3935  3938     1 
 3937  3935  3938     1 
 3935  3938  3939     1 
 3938  3939  3940     1 
 3938  3939  3941     1 
 3938  3939  3942     1 
 3940  3939  3941     1 
 3940  3939  3942     1 
 3941  3939  3942     1 
 3939  3942  3943     1 
 3939  3942  3944     1 
 3939  3942  3959     1 
 3943  3942  3944     1 
 3943  3942  3959     1 
 3944  3942  3959     1 
 3942  3944  3945     1 
 3944  3945  3946     1 
 3944  3945  3947     1 
 3944  3945  3961     1 
 3946  3945  3947     1 
 3946  3945  3961     1 
 3947  3945  3961     1 
 3945  3947  3948     1 
 3945  3947  3957     1 
 3948  3947  3957     1 
 3947  3948  3949     1 
 3947  3948  3950     1 
 3949  3948  3950     1 
 3948  3950  3951     1 
 3948  3950  3952     1 
 3951  3950  3952     1 
 3950  3952  3953     1 
 3950  3952  3956     1 
 3953  3952  3956     1 
 3952  3953  3954     1 
 3952  3953  3955     1 
 3954  3953  3955     1 
 3952  3956  3957     1 
 3947  3957  3956     1 
 3947  3957  3958     1 
 3956  3957  3958     1 
 3942  3959  3960     1 
 3942  3959  3961     1 
 3942  3959  3964     1 
 3960  3959  3961     1 
 3960  3959  3964     1 
 3961  3959  3964     1 
 3945  3961  3959     1 
 3945  3961  3962     1 
 3945  3961  3963     1 
 3959  3961  3962     1 
 3959  3961  3963     1 
 3962  3961  3963     1 
 3959  3964  3965     1 
 3964  3965  3966     1 
 3964  3965  3967     1 
 3964  3965  3968     1 
 3966  3965  3967     1 
 3966  3965  3968     1 
 3967  3965  3968     1 
 3965  3968  3969     1 
 3968  3969  3970     1 
 3968  3969  3971     1 
 3968  3969  3972     1 
 3970  3969  3971     1 
 3970  3969  3972     1 
 3971  3969  3972     1 
 3969  3972  3973     1 
 3969  3972  3974     1 
 3969  3972  3989     1 
 3973  3972  3974     1 
 3973  3972  3989     1 
 3974  3972  3989     1 
 3972  3974  3975     1 
 3974  3975  3976     1 
 3974  3975  3977     1 
 3974  3975  3991     1 
 3976  3975  3977     1 
 3976  3975  3991     1 
 3977  3975  3991     1 
 3975  3977  3978     1 
 3975  3977  3987     1 
 3978  3977  3987     1 
 3977  3978  3979     1 
 3977  3978  3980     1 
 3979  3978  3980     1 
 3978  3980  3981     1 
 3978  3980  3982     1 
 3981  3980  3982     1 
 3980  3982  3983     1 
 3980  3982  3986     1 
 3983  3982  3986     1 
 3982  3983  3984     1 
 3982  3983  3985     1 
 3984  3983  3985     1 
 3982  3986  3987     1 
 3977  3987  3986     1 
 3977  3987  3988     1 
 3986  3987  3988     1 
 3972  3989  3990     1 
 3972  3989  3991     1 
 3972  3989  3994     1 
 3990  3989  3991     1 
 3990  3989  3994     1 
 3991  3989  3994     1 
 3975  3991  3989     1 
 3975  3991  3992     1 
 3975  3991  3993     1 
 3989  3991  3992     1 
 3989  3991  3993     1 
 3992  3991  3993     1 
 3989  3994  3995     1 
 3994  3995  3996     1 
 3994  3995  3997     1 
 3994  3995  3998     1 
 3996  3995  3997     1 
 3996  3995  3998     1 
 3997  3995  3998     1 
 3995  3998  3999     1 
 3998  3999  4000     1 
 3998  3999  4001     1 
 3998  3999  4002     1 
 4000  3999  4001     1 
 4000  3999  4002     1 
 4001  3999  4002     1 
 3999  4002  4003     1 
 3999  4002  4004     1 
 3999  4002  4019     1 
 4003  4002  4004     1 
 4003  4002  4019     1 
 4004  4002  4019     1 
 4002  4004  4005     1 
 4004  4005  4006     1 
 4004  4005  4007     1 
 4004  4005  4021     1 
 4006  4005  4007     1 
 4006  4005  4021     1 
 4007  4005  4021     1 
 4005  4007  4008     1 
 4005  4007  4017     1 
 4008  4007  4017     1 
 4007  4008  4009     1 
 4007  4008  4010     1 
 4009  4008  4010     1 
 4008  4010  4011     1 
 4008  4010  4012     1 
 4011  4010  4012     1 
 4010  4012  4013     1 
 4010  4012  4016     1 
 4013  4012  4016     1 
 4012  4013  4014     1 
 4012  4013  4015     1 
 4014  4013  4015     1 
 4012  4016  4017     1 
 4007  4017  4016     1 
 4007  4017  4018     1 
 4016  4017  4018     1 
 4002  4019  4020     1 
 4002  4019  4021     1 
 4002  4019  4024     1 
 4020  4019  4021     1 
 4020  4019  4024     1 
 4021  4019  4024     1 
 4005  4021  4019     1 
 4005  4021  4022     1 
 4005  4021  4023     1 
 4019  4021  4022     1 
 4019  4021  4023     1 
 4022  4021  4023     1 
 4019  4024  4025     1 
 4024  4025  4026     1 
 4024  4025  4027     1 
 4024  4025  4028     1 
 4026  4025  4027     1 
 4026  4025  4028     1 
 4027  4025  4028     1 
 4025  4028  4029     1 
 4028  4029  4030     1 
 4028  4029  4031     1 
 4028  4029  4032     1 
 4030  4029  4031     1 
 4030  4029  4032     1 
 4031  4029  4032     1 
 4029  4032  4033     1 
 4029  4032  4034     1 
 4029  4032  4049     1 
 4033  4032  4034     1 
 4033  4032  4049     1 
 4034  4032  4049     1 
 4032  4034  4035     1 
 4034  4035  4036     1 
 4034  4035  4037     1 
 4034  4035  4051     1 
 4036  4035  4037     1 
 4036  4035  4051     1 
 4037  4035  4051     1 
 4035  4037  4038     1 
 4035  4037  4047     1 
 4038  4037  4047     1 
 4037  4038  4039     1 
 4037  4038  4040     1 
 4039  4038  4040     1 
 4038  4040  4041     1 
 4038  4040  4042     1 
 4041  4040  4042     1 
 4040  4042  4043     1 
 4040  4042  4046     1 
 4043  4042  4046     1 
 4042  4043  4044     1 
 4042  4043  4045     1 
 4044  4043  4045     1 
 4042  4046  4047     1 
 4037  4047  4046     1 
 4037  4047  4048     1 
 4046  4047  4048     1 
 4032  4049  4050     1 
 4032  4049  4051     1 
 4032  4049  4054     1 
 4050  4049  4051     1 
 4050  4049  4054     1 
 4051  4049  4054     1 
 4035  4051  4049     1 
 4035  4051  4052     1 
 4035  4051  4053     1 
 4049  4051  4052     1 
 4049  4051  4053     1 
 4052  4051  4053     1 
 4049  4054  4055     1 
 4054  4055  4056     1 
 4054  4055  4057     1 
 4054  4055  4058     1 
 4056  4055  4057     1 
 4056  4055  4058     1 
 4057  4055  4058     1 
 4055  4058  4059     1 
 4058  4059  4060     1 
 4058  4059  4061     1 
 4058  4059  4062     1 
 4060  4059  4061     1 
 4060  4059  4062     1 
 4061  4059  4062     1 
 4059  4062  4063     1 
 4059  4062  4064     1 
 4059  4062  4081     1 
 4063  4062  4064     1 
 4063  4062  4081     1 
 4064  4062  4081     1 
 4062  4064  4065     1 
 4064  4065  4066     1 
 4064  4065  4067     1 
 4064  4065  4083     1 
 4066  4065  4067     1 
 4066  4065  4083     1 
 4067  4065  4083     1 
 4065  4067  4068     1 
 4065  4067  4079     1 
 4068  4067  4079     1 
 4067  4068  4069     1 
 4067  4068  4070     1 
 4069  4068  4070     1 
 4068  4070  4071     1 
 4068  4070  4075     1 
 4071  4070  4075     1 
 4070  4071  4072     1 
 4070  4071  4073     1 
 4070  4071  4074     1 
 4072  4071  4073     1 
 4072  4071  4074     1 
 4073  4071  4074     1 
 4070  4075  4076     1 
 4070  4075  4077     1 
 4076  4075  4077     1 
 4075  4077  4078     1 
 4075  4077  4079     1 
 4078  4077  4079     1 
 4067  4079  4077     1 
 4067  4079  4080     1 
 4077  4079  4080     1 
 4062  4081  4082     1 
 4062  4081  4083     1 
 4062  4081  4086     1 
 4082  4081  4083     1 
 4082  4081  4086     1 
 4083  4081  4086     1 
 4065  4083  4081     1 
 4065  4083  4084     1 
 4065  4083  4085     1 
 4081  4083  4084     1 
 4081  4083  4085     1 
 4084  4083  4085     1 
 4081  4086  4087     1 
 4086  4087  4088     1 
 4086  4087  4089     1 
 4086  4087  4090     1 
 4088  4087  4089     1 
 4088  4087  4090     1 
 4089  4087  4090     1 
 4087  4090  4091     1 
 4090  4091  4092     1 
 4090  4091  4093     1 
 4090  4091  4094     1 
 4092  4091  4093     1 
 4092  4091  4094     1 
 4093  4091  4094     1 
 4091  4094  4095     1 
 4091  4094  4096     1 
 4091  4094  4114     1 
 4095  4094  4096     1 
 4095  4094  4114     1 
 4096  4094  4114     1 
 4094  4096  4097     1 
 4096  4097  4098     1 
 4096  4097  4099     1 
 4096  4097  4116     1 
 4098  4097  4099     1 
 4098  4097  4116     1 
 4099  4097  4116     1 
 4097  4099  4100     1 
 4097  4099  4113     1 
 4100  4099  4113     1 
 4099  4100  4101     1 
 4099  4100  4102     1 
 4101  4100  4102     1 
 4100  4102  4103     1 
 4102  4103  4104     1 
 4102  4103  4113     1 
 4104  4103  4113     1 
 4103  4104  4105     1 
 4103  4104  4106     1 
 4105  4104  4106     1 
 4104  4106  4107     1 
 4104  4106  4108     1 
 4107  4106  4108     1 
 4106  4108  4109     1 
 4106  4108  4112     1 
 4109  4108  4112     1 
 4108  4109  4110     1 
 4108  4109  4111     1 
 4110  4109  4111     1 
 4108  4112  4113     1 
 4099  4113  4103     1 
 4099  4113  4112     1 
 4103  4113  4112     1 
 4094  4114  4115     1 
 4094  4114  4116     1 
 4094  4114  4119     1 
 4115  4114  4116     1 
 4115  4114  4119     1 
 4116  4114  4119     1 
 4097  4116  4114     1 
 4097  4116  4117     1 
 4097  4116  4118     1 
 4114  4116  4117     1 
 4114  4116  4118     1 
 4117  4116  4118     1 
 4114  4119  4120     1 
 4119  4120  4121     1 
 4119  4120  4122     1 
 4119  4120  4123     1 
 4121  4120  4122     1 
 4121  4120  4123     1 
 4122  4120  4123     1 
 4120  4123  4124     1 
 4123  4124  4125     1 
 4123  4124  4126     1 
 4123  4124  4127     1 
 4125  4124  4126     1 
 4125  4124  4127     1 
 4126  4124  4127     1 
 4124  4127  4128     1 
 4124  4127  4129     1 
 4124  4127  4144     1 
 4128  4127  4129     1 
 4128  4127  4144     1 
 4129  4127  4144     1 
 4127  4129  4130     1 
 4129  4130  4131     1 
 4129  4130  4132     1 
 4129  4130  4146     1 
 4131  4130  4132     1 
 4131  4130  4146     1 
 4132  4130  4146     1 
 4130  4132  4133     1 
 4130  4132  4142     1 
 4133  4132  4142     1 
 4132  4133  4134     1 
 4132  4133  4135     1 
 4134  4133  4135     1 
 4133  4135  4136     1 
 4133  4135  4137     1 
 4136  4135  4137     1 
 4135  4137  4138     1 
 4135  4137  4141     1 
 4138  4137  4141     1 
 4137  4138  4139     1 
 4137  4138  4140     1 
 4139  4138  4140     1 
 4137  4141  4142     1 
 4132  4142  4141     1 
 4132  4142  4143     1 
 4141  4142  4143     1 
 4127  4144  4145     1 
 4127  4144  4146     1 
 4127  4144  4149     1 
 4145  4144  4146     1 
 4145  4144  4149     1 
 4146  4144  4149     1 
 4130  4146  4144     1 
 4130  4146  4147     1 
 4130  4146  4148     1 
 4144  4146  4147     1 
 4144  4146  4148     1 
 4147  4146  4148     1 
 4144  4149  4150     1 
 4149  4150  4151     1 
 4149  4150  4152     1 
 4149  4150  4153     1 
 4151  4150  4152     1 
 4151  4150  4153     1 
 4152  4150  4153     1 
 4150  4153  4154     1 
 4153  4154  4155     1 
 4153  4154  4156     1 
 4153  4154  4157     1 
 4155  4154  4156     1 
 4155  4154  4157     1 
 4156  4154  4157     1 
 4154  4157  4158     1 
 4154  4157  4159     1 
 4154  4157  4174     1 
 4158  4157  4159     1 
 4158  4157  4174     1 
 4159  4157  4174     1 
 4157  4159  4160     1 
 4159  4160  4161     1 
 4159  4160  4162     1 
 4159  4160  4176     1 
 4161  4160  4162     1 
 4161  4160  4176     1 
 4162  4160  4176     1 
 4160  4162  4163     1 
 4160  4162  4172     1 
 4163  4162  4172     1 
 4162  4163  4164     1 
 4162  4163  4165     1 
 4164  4163  4165     1 
 4163  4165  4166     1 
 4163  4165  4167     1 
 4166  4165  4167     1 
 4165  4167  4168     1 
 4165  4167  4171     1 
 4168  4167  4171     1 
 4167  4168  4169     1 
 4167  4168  4170     1 
 4169  4168  4170     1 
 4167  4171  4172     1 
 4162  4172  4171     1 
 4162  4172  4173     1 
 4171  4172  4173     1 
 4157  4174  4175     1 
 4157  4174  4176     1 
 4157  4174  4179     1 
 4175  4174  4176     1 
 4175  4174  4179     1 
 4176  4174  4179     1 
 4160  4176  4174     1 
 4160  4176  4177     1 
 4160  4176  4178     1 
 4174  4176  4177     1 
 4174  4176  4178     1 
 4177  4176  4178     1 
 4174  4179  4180     1 
 4179  4180  4181     1 
 4179  4180  4182     1 
 4179  4180  4183     1 
 4181  4180  4182     1 
 4181  4180  4183     1 
 4182  4180  4183     1 
 4180  4183  4184     1 
 4183  4184  4185     1 
 4183  4184  4186     1 
 4183  4184  4187     1 
 4185  4184  4186     1 
 4185  4184  4187     1 
 4186  4184  4187     1 
 4184  4187  4188     1 
 4184  4187  4189     1 
 4184  4187  4204     1 
 4188  4187  4189     1 
 4188  4187  4204     1 
 4189  4187  4204     1 
 4187  4189  4190     1 
 4189  4190  4191     1 
 4189  4190  4192     1 
 4189  4190  4206     1 
 4191  4190  4192     1 
 4191  4190  4206     1 
 4192  4190  4206     1 
 4190  4192  4193     1 
 4190  4192  4202     1 
 4193  4192  4202     1 
 4192  4193  4194     1 
 4192  4193  4195     1 
 4194  4193  4195     1 
 4193  4195  4196     1 
 4193  4195  4197     1 
 4196  4195  4197     1 
 4195  4197  4198     1 
 4195  4197  4201     1 
 4198  4197  4201     1 
 4197  4198  4199     1 
 4197  4198  4200     1 
 4199  4198  4200     1 
 4197  4201  4202     1 
 4192  4202  4201     1 
 4192  4202  4203     1 
 4201  4202  4203     1 
 4187  4204  4205     1 
 4187  4204  4206     1 
 4187  4204  4209     1 
 4205  4204  4206     1 
 4205  4204  4209     1 
 4206  4204  4209     1 
 4190  4206  4204     1 
 4190  4206  4207     1 
 4190  4206  4208     1 
 4204  4206  4207     1 
 4204  4206  4208     1 
 4207  4206  4208     1 
 4204  4209  4210     1 
 4209  4210  4211     1 
 4209  4210  4212     1 
 4209  4210  4213     1 
 4211  4210  4212     1 
 4211  4210  4213     1 
 4212  4210  4213     1 
 4210  4213  4214     1 
 4213  4214  4215     1 
 4213  4214  4216     1 
 4213  4214  4217     1 
 4215  4214  4216     1 
 4215  4214  4217     1 
 4216  4214  4217     1 
 4214  4217  4218     1 
 4214  4217  4219     1 
 4214  4217  4237     1 
 4218  4217  4219     1 
 4218  4217  4237     1 
 4219  4217  4237     1 
 4217  4219  4220     1 
 4219  4220  4221     1 
 4219  4220  4222     1 
 4219  4220  4239     1 
 4221  4220  4222     1 
 4221  4220  4239     1 
 4222  4220  4239     1 
 4220  4222  4223     1 
 4220  4222  4236     1 
 4223  4222  4236     1 
 4222  4223  4224     1 
 4222  4223  4225     1 
 4224  4223  4225     1 
 4223  4225  4226     1 
 4225  4226  4227     1 
 4225  4226  4236     1 
 4227  4226  4236     1 
 4226  4227  4228     1 
 4226  4227  4229     1 
 4228  4227  4229     1 
 4227  4229  4230     1 
 4227  4229  4231     1 
 4230  4229  4231     1 
 4229  4231  4232     1 
 4229  4231  4235     1 
 4232  4231  4235     1 
 4231  4232  4233     1 
 4231  4232  4234     1 
 4233  4232  4234     1 
 4231  4235  4236     1 
 4222  4236  4226     1 
 4222  4236  4235     1 
 4226  4236  4235     1 
 4217  4237  4238     1 
 4217  4237  4239     1 
 4217  4237  4242     1 
 4238  4237  4239     1 
 4238  4237  4242     1 
 4239  4237  4242     1 
 4220  4239  4237     1 
 4220  4239  4240     1 
 4220  4239  4241     1 
 4237  4239  4240     1 
 4237  4239  4241     1 
 4240  4239  4241     1 
 4237  4242  4243     1 
 4242  4243  4244     1 
 4242  4243  4245     1 
 4242  4243  4246     1 
 4244  4243  4245     1 
 4244  4243  4246     1 
 4245  4243  4246     1 
 4243  4246  4247     1 
 4246  4247  4248     1 
 4246  4247  4249     1 
 4246  4247  4250     1 
 4248  4247  4249     1 
 4248  4247  4250     1 
 4249  4247  4250     1 
 4247  4250  4251     1 
 4247  4250  4252     1 
 4247  4250  4270     1 
 4251  4250  4252     1 
 4251  4250  4270     1 
 4252  4250  4270     1 
 4250  4252  4253     1 
 4252  4253  4254     1 
 4252  4253  4255     1 
 4252  4253  4272     1 
 4254  4253  4255     1 
 4254  4253  4272     1 
 4255  4253  4272     1 
 4253  4255  4256     1 
 4253  4255  4269     1 
 4256  4255  4269     1 
 4255  4256  4257     1 
 4255  4256  4258     1 
 4257  4256  4258     1 
 4256  4258  4259     1 
 4258  4259  4260     1 
 4258  4259  4269     1 
 4260  4259  4269     1 
 4259  4260  4261     1 
 4259  4260  4262     1 
 4261  4260  4262     1 
 4260  4262  4263     1 
 4260  4262  4264     1 
 4263  4262  4264     1 
 4262  4264  4265     1 
 4262  4264  4268     1 
 4265  4264  4268     1 
 4264  4265  4266     1 
 4264  4265  4267     1 
 4266  4265  4267     1 
 4264  4268  4269     1 
 4255  4269  4259     1 
 4255  4269  4268     1 
 4259  4269  4268     1 
 4250  4270  4271     1 
 4250  4270  4272     1 
 4250  4270  4275     1 
 4271  4270  4272     1 
 4271  4270  4275     1 
 4272  4270  4275     1 
 4253  4272  4270     1 
 4253  4272  4273     1 
 4253  4272  4274     1 
 4270  4272  4273     1 
 4270  4272  4274     1 
 4273  4272  4274     1 
 4270  4275  4276     1 
 4275  4276  4277     1 
 4275  4276  4278     1 
 4275  4276  4279     1 
 4277  4276  4278     1 
 4277  4276  4279     1 
 4278  4276  4279     1 
 4276  4279  4280     1 
 4279  4280  4281     1 
 4279  4280  4282     1 
 4279  4280  4283     1 
 4281  4280  4282     1 
 4281  4280  4283     1 
 4282  4280  4283     1 
 4280  4283  4284     1 
 4280  4283  4285     1 
 4280  4283  4303     1 
 4284  4283  4285     1 
 4284  4283  4303     1 
 4285  4283  4303     1 
 4283  4285  4286     1 
 4285  4286  4287     1 
 4285  4286  4288     1 
 4285  4286  4305     1 
 4287  4286  4288     1 
 4287  4286  4305     1 
 4288  4286  4305     1 
 4286  4288  4289     1 
 4286  4288  4302     1 
 4289  4288  4302     1 
 4288  4289  4290     1 
 4288  4289  4291     1 
 4290  4289  4291     1 
 4289  4291  4292     1 
 4291  4292  4293     1 
 4291  4292  4302     1 
 4293  4292  4302     1 
 4292  4293  4294     1 
 4292  4293  4295     1 
 4294  4293  4295     1 
 4293  4295  4296     1 
 4293  4295  4297     1 
 4296  4295  4297     1 
 4295  4297  4298     1 
 4295  4297  4301     1 
 4298  4297  4301     1 
 4297  4298  4299     1 
 4297  4298  4300     1 
 4299  4298  4300     1 
 4297  4301  4302     1 
 4288  4302  4292     1 
 4288  4302  4301     1 
 4292  4302  4301     1 
 4283  4303  4304     1 
 4283  4303  4305     1 
 4283  4303  4308     1 
 4304  4303  4305     1 
 4304  4303  4308     1 
 4305  4303  4308     1 
 4286  4305  4303     1 
 4286  4305  4306     1 
 4286  4305  4307     1 
 4303  4305  4306     1 
 4303  4305  4307     1 
 4306  4305  4307     1 
 4303  4308  4309     1 
 4308  4309  4310     1 
 4308  4309  4311     1 
 4308  4309  4312     1 
 4310  4309  4311     1 
 4310  4309  4312     1 
 4311  4309  4312     1 
 4309  4312  4313     1 
 4312  4313  4314     1 
 4312  4313  4315     1 
 4312  4313  4316     1 
 4314  4313  4315     1 
 4314  4313  4316     1 
 4315  4313  4316     1 
 4313  4316  4317     1 
 4313  4316  4318     1 
 4313  4316  4335     1 
 4317  4316  4318     1 
 4317  4316  4335     1 
 4318  4316  4335     1 
 4316  4318  4319     1 
 4318  4319  4320     1 
 4318  4319  4321     1 
 4318  4319  4337     1 
 4320  4319  4321     1 
 4320  4319  4337     1 
 4321  4319  4337     1 
 4319  4321  4322     1 
 4319  4321  4333     1 
 4322  4321  4333     1 
 4321  4322  4323     1 
 4321  4322  4324     1 
 4323  4322  4324     1 
 4322  4324  4325     1 
 4322  4324  4329     1 
 4325  4324  4329     1 
 4324  4325  4326     1 
 4324  4325  4327     1 
 4324  4325  4328     1 
 4326  4325  4327     1 
 4326  4325  4328     1 
 4327  4325  4328     1 
 4324  4329  4330     1 
 4324  4329  4331     1 
 4330  4329  4331     1 
 4329  4331  4332     1 
 4329  4331  4333     1 
 4332  4331  4333     1 
 4321  4333  4331     1 
 4321  4333  4334     1 
 4331  4333  4334     1 
 4316  4335  4336     1 
 4316  4335  4337     1 
 4316  4335  4340     1 
 4336  4335  4337     1 
 4336  4335  4340     1 
 4337  4335  4340     1 
 4319  4337  4335     1 
 4319  4337  4338     1 
 4319  4337  4339     1 
 4335  4337  4338     1 
 4335  4337  4339     1 
 4338  4337  4339     1 
 4335  4340  4341     1 
 4340  4341  4342     1 
 4340  4341  4343     1 
 4340  4341  4344     1 
 4342  4341  4343     1 
 4342  4341  4344     1 
 4343  4341  4344     1 
 4341  4344  4345     1 
 4344  4345  4346     1 
 4344  4345  4347     1 
 4344  4345  4348     1 
 4346  4345  4347     1 
 4346  4345  4348     1 
 4347  4345  4348     1 
 4345  4348  4349     1 
 4345  4348  4350     1 
 4345  4348  4365     1 
 4349  4348  4350     1 
 4349  4348  4365     1 
 4350  4348  4365     1 
 4348  4350  4351     1 
 4350  4351  4352     1 
 4350  4351  4353     1 
 4350  4351  4367     1 
 4352  4351  4353     1 
 4352  4351  4367     1 
 4353  4351  4367     1 
 4351  4353  4354     1 
 4351  4353  4363     1 
 4354  4353  4363     1 
 4353  4354  4355     1 
 4353  4354  4356     1 
 4355  4354  4356     1 
 4354  4356  4357     1 
 4354  4356  4358     1 
 4357  4356  4358     1 
 4356  4358  4359     1 
 4356  4358  4362     1 
 4359  4358  4362     1 
 4358  4359  4360     1 
 4358  4359  4361     1 
 4360  4359  4361     1 
 4358  4362  4363     1 
 4353  4363  4362     1 
 4353  4363  4364     1 
 4362  4363  4364     1 
 4348  4365  4366     1 
 4348  4365  4367     1 
 4348  4365  4370     1 
 4366  4365  4367     1 
 4366  4365  4370     1 
 4367  4365  4370     1 
 4351  4367  4365     1 
 4351  4367  4368     1 
 4351  4367  4369     1 
 4365  4367  4368     1 
 4365  4367  4369     1 
 4368  4367  4369     1 
 4365  4370  4371     1 
 4370  4371  4372     1 
 4370  4371  4373     1 
 4370  4371  4374     1 
 4372  4371  4373     1 
 4372  4371  4374     1 
 4373  4371  4374     1 
 4371  4374  4375     1 
 4374  4375  4376     1 
 4374  4375  4377     1 
 4374  4375  4378     1 
 4376  4375  4377     1 
 4376  4375  4378     1 
 4377  4375  4378     1 
 4375  4378  4379     1 
 4375  4378  4380     1 
 4375  4378  4395     1 
 4379  4378  4380     1 
 4379  4378  4395     1 
 4380  4378  4395     1 
 4378  4380  4381     1 
 4380  4381  4382     1 
 4380  4381  4383     1 
 4380  4381  4397     1 
 4382  4381  4383     1 
 4382  4381  4397     1 
 4383  4381  4397     1 
 4381  4383  4384     1 
 4381  4383  4393     1 
 4384  4383  4393     1 
 4383  4384  4385     1 
 4383  4384  4386     1 
 4385  4384  4386     1 
 4384  4386  4387     1 
 4384  4386  4388     1 
 4387  4386  4388     1 
 4386  4388  4389     1 
 4386  4388  4392     1 
 4389  4388  4392     1 
 4388  4389  4390     1 
 4388  4389  4391     1 
 4390  4389  4391     1 
 4388  4392  4393     1 
 4383  4393  4392     1 
 4383  4393  4394     1 
 4392  4393  4394     1 
 4378  4395  4396     1 
 4378  4395  4397     1 
 4378  4395  4400     1 
 4396  4395  4397     1 
 4396  4395  4400     1 
 4397  4395  4400     1 
 4381  4397  4395     1 
 4381  4397  4398     1 
 4381  4397  4399     1 
 4395  4397  4398     1 
 4395  4397  4399     1 
 4398  4397  4399     1 
 4395  4400  4401     1 
 4400  4401  4402     1 
 4400  4401  4403     1 
 4400  4401  4404     1 
 4402  4401  4403     1 
 4402  4401  4404     1 
 4403  4401  4404     1 
 4401  4404  4405     1 
 4404  4405  4406     1 
 4404  4405  4407     1 
 4404  4405  4408     1 
 4406  4405  4407     1 
 4406  4405  4408     1 
 4407  4405  4408     1 
 4405  4408  4409     1 
 4405  4408  4410     1 
 4405  4408  4425     1 
 4409  4408  4410     1 
 4409  4408  4425     1 
 4410  4408  4425     1 
 4408  4410  4411     1 
 4410  4411  4412     1 
 4410  4411  4413     1 
 4410  4411  4427     1 
 4412  4411  4413     1 
 4412  4411  4427     1 
 4413  4411  4427     1 
 4411  4413  4414     1 
 4411  4413  4423     1 
 4414  4413  4423     1 
 4413  4414  4415     1 
 4413  4414  4416     1 
 4415  4414  4416     1 
 4414  4416  4417     1 
 4414  4416  4418     1 
 4417  4416  4418     1 
 4416  4418  4419     1 
 4416  4418  4422     1 
 4419  4418  4422     1 
 4418  4419  4420     1 
 4418  4419  4421     1 
 4420  4419  4421     1 
 4418  4422  4423     1 
 4413  4423  4422     1 
 4413  4423  4424     1 
 4422  4423  4424     1 
 4408  4425  4426     1 
 4408  4425  4427     1 
 4408  4425  4430     1 
 4426  4425  4427     1 
 4426  4425  4430     1 
 4427  4425  4430     1 
 4411  4427  4425     1 
 4411  4427  4428     1 
 4411  4427  4429     1 
 4425  4427  4428     1 
 4425  4427  4429     1 
 4428  4427  4429     1 
 4425  4430  4431     1 
 4430  4431  4432     1 
 4430  4431  4433     1 
 4430  4431  4434     1 
 4432  4431  4433     1 
 4432  4431  4434     1 
 4433  4431  4434     1 
 4431  4434  4435     1 
 4434  4435  4436     1 
 4434  4435  4437     1 
 4434  4435  4438     1 
 4436  4435  4437     1 
 4436  4435  4438     1 
 4437  4435  4438     1 
 4435  4438  4439     1 
 4435  4438  4440     1 
 4435  4438  4458     1 
 4439  4438  4440     1 
 4439  4438  4458     1 
 4440  4438  4458     1 
 4438  4440  4441     1 
 4440  4441  4442     1 
 4440  4441  4443     1 
 4440  4441  4460     1 
 4442  4441  4443     1 
 4442  4441  4460     1 
 4443  4441  4460     1 
 4441  4443  4444     1 
 4441  4443  4457     1 
 4444  4443  4457     1 
 4443  4444  4445     1 
 4443  4444  4446     1 
 4445  4444  4446     1 
 4444  4446  4447     1 
 4446  4447  4448     1 
 4446  4447  4457     1 
 4448  4447  4457     1 
 4447  4448  4449     1 
 4447  4448  4450     1 
 4449  4448  4450     1 
 4448  4450  4451     1 
 4448  4450  4452     1 
 4451  4450  4452     1 
 4450  4452  4453     1 
 4450  4452  4456     1 
 4453  4452  4456     1 
 4452  4453  4454     1 
 4452  4453  4455     1 
 4454  4453  4455     1 
 4452  4456  4457     1 
 4443  4457  4447     1 
 4443  4457  4456     1 
 4447  4457  4456     1 
 4438  4458  4459     1 
 4438  4458  4460     1 
 4438  4458  4463     1 
 4459  4458  4460     1 
 4459  4458  4463     1 
 4460  4458  4463     1 
 4441  4460  4458     1 
 4441  4460  4461     1 
 4441  4460  4462     1 
 4458  4460  4461     1 
 4458  4460  4462     1 
 4461  4460  4462     1 
 4458  4463  4464     1 
 4463  4464  4465     1 
 4463  4464  4466     1 
 4463  4464  4467     1 
 4465  4464  4466     1 
 4465  4464  4467     1 
 4466  4464  4467     1 
 4464  4467  4468     1 
 4467  4468  4469     1 
 4467  4468  4470     1 
 4467  4468  4471     1 
 4469  4468  4470     1 
 4469  4468  4471     1 
 4470  4468  4471     1 
 4468  4471  4472     1 
 4468  4471  4473     1 
 4468  4471  4490     1 
 4472  4471  4473     1 
 4472  4471  4490     1 
 4473  4471  4490     1 
 4471  4473  4474     1 
 4473  4474  4475     1 
 4473  4474  4476     1 
 4473  4474  4492     1 
 4475  4474  4476     1 
 4475  4474  4492     1 
 4476  4474  4492     1 
 4474  4476  4477     1 
 4474  4476  4489     1 
 4477  4476  4489     1 
 4476  4477  4478     1 
 4476  4477  4479     1 
 4478  4477  4479     1 
 4477  4479  4480     1 
 4479  4480  4481     1 
 4479  4480  4489     1 
 4481  4480  4489     1 
 4480  4481  4482     1 
 4480  4481  4485     1 
 4482  4481  4485     1 
 4481  4482  4483     1 
 4481  4482  4484     1 
 4483  4482  4484     1 
 4481  4485  4486     1 
 4485  4486  4487     1 
 4485  4486  4488     1 
 4487  4486  4488     1 
 4486  4488  4489     1 
 4476  4489  4480     1 
 4476  4489  4488     1 
 4480  4489  4488     1 
 4471  4490  4491     1 
 4471  4490  4492     1 
 4471  4490  4495     1 
 4491  4490  4492     1 
 4491  4490  4495     1 
 4492  4490  4495     1 
 4474  4492  4490     1 
 4474  4492  4493     1 
 4474  4492  4494     1 
 4490  4492  4493     1 
 4490  4492  4494     1 
 4493  4492  4494     1 
 4490  4495  4496     1 
 4495  4496  4497     1 
 4495  4496  4498     1 
 4495  4496  4499     1 
 4497  4496  4498     1 
 4497  4496  4499     1 
 4498  4496  4499     1 
 4496  4499  4500     1 
 4499  4500  4501     1 
 4499  4500  4502     1 
 4499  4500  4503     1 
 4501  4500  4502     1 
 4501  4500  4503     1 
 4502  4500  4503     1 
 4500  4503  4504     1 
 4500  4503  4505     1 
 4500  4503  4520     1 
 4504  4503  4505     1 
 4504  4503  4520     1 
 4505  4503  4520     1 
 4503  4505  4506     1 
 4505  4506  4507     1 
 4505  4506  4508     1 
 4505  4506  4522     1 
 4507  4506  4508     1 
 4507  4506  4522     1 
 4508  4506  4522     1 
 4506  4508  4509     1 
 4506  4508  4518     1 
 4509  4508  4518     1 
 4508  4509  4510     1 
 4508  4509  4511     1 
 4510  4509  4511     1 
 4509  4511  4512     1 
 4509  4511  4513     1 
 4512  4511  4513     1 
 4511  4513  4514     1 
 4511  4513  4517     1 
 4514  4513  4517     1 
 4513  4514  4515     1 
 4513  4514  4516     1 
 4515  4514  4516     1 
 4513  4517  4518     1 
 4508  4518  4517     1 
 4508  4518  4519     1 
 4517  4518  4519     1 
 4503  4520  4521     1 
 4503  4520  4522     1 
 4503  4520  4525     1 
 4521  4520  4522     1 
 4521  4520  4525     1 
 4522  4520  4525     1 
 4506  4522  4520     1 
 4506  4522  4523     1 
 4506  4522  4524     1 
 4520  4522  4523     1 
 4520  4522  4524     1 
 4523  4522  4524     1 
 4520  4525  4526     1 
 4525  4526  4527     1 
 4525  4526  4528     1 
 4525  4526  4529     1 
 4527  4526  4528     1 
 4527  4526  4529     1 
 4528  4526  4529     1 
 4526  4529  4530     1 
 4529  4530  4531     1 
 4529  4530  4532     1 
 4529  4530  4533     1 
 4531  4530  4532     1 
 4531  4530  4533     1 
 4532  4530  4533     1 
 4530  4533  4534     1 
 4530  4533  4535     1 
 4530  4533  4550     1 
 4534  4533  4535     1 
 4534  4533  4550     1 
 4535  4533  4550     1 
 4533  4535  4536     1 
 4535  4536  4537     1 
 4535  4536  4538     1 
 4535  4536  4552     1 
 4537  4536  4538     1 
 4537  4536  4552     1 
 4538  4536  4552     1 
 4536  4538  4539     1 
 4536  4538  4548     1 
 4539  4538  4548     1 
 4538  4539  4540     1 
 4538  4539  4541     1 
 4540  4539  4541     1 
 4539  4541  4542     1 
 4539  4541  4543     1 
 4542  4541  4543     1 
 4541  4543  4544     1 
 4541  4543  4547     1 
 4544  4543  4547     1 
 4543  4544  4545     1 
 4543  4544  4546     1 
 4545  4544  4546     1 
 4543  4547  4548     1 
 4538  4548  4547     1 
 4538  4548  4549     1 
 4547  4548  4549     1 
 4533  4550  4551     1 
 4533  4550  4552     1 
 4533  4550  4555     1 
 4551  4550  4552     1 
 4551  4550  4555     1 
 4552  4550  4555     1 
 4536  4552  4550     1 
 4536  4552  4553     1 
 4536  4552  4554     1 
 4550  4552  4553     1 
 4550  4552  4554     1 
 4553  4552  4554     1 
 4550  4555  4556     1 
 4555  4556  4557     1 
 4555  4556  4558     1 
 4555  4556  4559     1 
 4557  4556  4558     1 
 4557  4556  4559     1 
 4558  4556  4559     1 
 4556  4559  4560     1 
 4559  4560  4561     1 
 4559  4560  4562     1 
 4559  4560  4563     1 
 4561  4560  4562     1 
 4561  4560  4563     1 
 4562  4560  4563     1 
 4560  4563  4564     1 
 4560  4563  4565     1 
 4560  4563  4580     1 
 4564  4563  4565     1 
 4564  4563  4580     1 
 4565  4563  4580     1 
 4563  4565  4566     1 
 4565  4566  4567     1 
 4565  4566  4568     1 
 4565  4566  4582     1 
 4567  4566  4568     1 
 4567  4566  4582     1 
 4568  4566  4582     1 
 4566  4568  4569     1 
 4566  4568  4578     1 
 4569  4568  4578     1 
 4568  4569  4570     1 
 4568  4569  4571     1 
 4570  4569  4571     1 
 4569  4571  4572     1 
 4569  4571  4573     1 
 4572  4571  4573     1 
 4571  4573  4574     1 
 4571  4573  4577     1 
 4574  4573  4577     1 
 4573  4574  4575     1 
 4573  4574  4576     1 
 4575  4574  4576     1 
 4573  4577  4578     1 
 4568  4578  4577     1 
 4568  4578  4579     1 
 4577  4578  4579     1 
 4563  4580  4581     1 
 4563  4580  4582     1 
 4563  4580  4585     1 
 4581  4580  4582     1 
 4581  4580  4585     1 
 4582  4580  4585     1 
 4566  4582  4580     1 
 4566  4582  4583     1 
 4566  4582  4584     1 
 4580  4582  4583     1 
 4580  4582  4584     1 
 4583  4582  4584     1 
 4580  4585  4586     1 
 4585  4586  4587     1 
 4585  4586  4588     1 
 4585  4586  4589     1 
 4587  4586  4588     1 
 4587  4586  4589     1 
 4588  4586  4589     1 
 4586  4589  4590     1 
 4589  4590  4591     1 
 4589  4590  4592     1 
 4589  4590  4593     1 
 4591  4590  4592     1 
 4591  4590  4593     1 
 4592  4590  4593     1 
 4590  4593  4594     1 
 4590  4593  4595     1 
 4590  4593  4612     1 
 4594  4593  4595     1 
 4594  4593  4612     1 
 4595  4593  4612     1 
 4593  4595  4596     1 
 4595  4596  4597     1 
 4595  4596  4598     1 
 4595  4596  4614     1 
 4597  4596  4598     1 
 4597  4596  4614     1 
 4598  4596  4614     1 
 4596  4598  4599     1 
 4596  4598  4610     1 
 4599  4598  4610     1 
 4598  4599  4600     1 
 4598  4599  4601     1 
 4600  4599  4601     1 
 4599  4601  4602     1 
 4599  4601  4606     1 
 4602  4601  4606     1 
 4601  4602  4603     1 
 4601  4602  4604     1 
 4601  4602  4605     1 
 4603  4602  4604     1 
 4603  4602  4605     1 
 4604  4602  4605     1 
 4601  4606  4607     1 
 4601  4606  4608     1 
 4607  4606  4608     1 
 4606  4608  4609     1 
 4606  4608  4610     1 
 4609  4608  4610     1 
 4598  4610  4608     1 
 4598  4610  4611     1 
 4608  4610  4611     1 
 4593  4612  4613     1 
 4593  4612  4614     1 
 4593  4612  4617     1 
 4613  4612  4614     1 
 4613  4612  4617     1 
 4614  4612  4617     1 
 4596  4614  4612     1 
 4596  4614  4615     1 
 4596  4614  4616     1 
 4612  4614  4615     1 
 4612  4614  4616     1 
 4615  4614  4616     1 
 4612  4617  4618     1 

[ dihedrals ]
;  ai    aj    ak    al funct            c0            c1            c2            c3            c4            c5
    2     1     3     4     9 
    2     1     3     5     9 
    2     1     3     6     9 
    1     3     6     7     9 
    1     3     6     8     9 
    1     3     6    23     9 
    4     3     6     7     9 
    4     3     6     8     9 
    4     3     6    23     9 
    5     3     6     7     9 
    5     3     6     8     9 
    5     3     6    23     9 
    3     6     8     9     9 
    7     6     8     9     9 
   23     6     8     9     9 
    3     6    23    24     9 
    3     6    23    25     9 
    3     6    23    28     9 
    7     6    23    24     9 
    7     6    23    25     9 
    7     6    23    28     9 
    8     6    23    24     9 
    8     6    23    25     9 
    8     6    23    28     9 
    6     8     9    10     9 
    6     8     9    11     9 
    6     8     9    25     9 
    8     9    11    12     9 
    8     9    11    21     9 
   10     9    11    12     9 
   10     9    11    21     9 
   25     9    11    12     9 
   25     9    11    21     9 
    8     9    25    23     9 
    8     9    25    26     9 
    8     9    25    27     9 
   10     9    25    23     9 
   10     9    25    26     9 
   10     9    25    27     9 
   11     9    25    23     9 
   11     9    25    26     9 
   11     9    25    27     9 
    9    11    12    13     9 
    9    11    12    14     9 
   21    11    12    13     9 
   21    11    12    14     9 
    9    11    21    20     9 
    9    11    21    22     9 
   12    11    21    20     9 
   12    11    21    22     9 
   11    12    14    15     9 
   11    12    14    16     9 
   13    12    14    15     9 
   13    12    14    16     9 
   12    14    16    17     9 
   12    14    16    20     9 
   15    14    16    17     9 
   15    14    16    20     9 
   14    16    17    18     9 
   14    16    17    19     9 
   20    16    17    18     9 
   20    16    17    19     9 
   14    16    20    21     9 
   17    16    20    21     9 
   16    20    21    11     9 
   16    20    21    22     9 
    6    23    25     9     9 
    6    23    25    26     9 
    6    23    25    27     9 
   24    23    25     9     9 
   24    23    25    26     9 
   24    23    25    27     9 
   28    23    25     9     9 
   28    23    25    26     9 
   28    23    25    27     9 
    6    23    28    29     9 
   24    23    28    29     9 
   25    23    28    29     9 
   23    28    29    30     9 
   23    28    29    31     9 
   23    28    29    32     9 
   28    29    32    33     9 
   30    29    32    33     9 
   31    29    32    33     9 
   29    32    33    34     9 
   29    32    33    35     9 
   29    32    33    36     9 
   32    33    36    37     9 
   32    33    36    38     9 
   32    33    36    53     9 
   34    33    36    37     9 
   34    33    36    38     9 
   34    33    36    53     9 
   35    33    36    37     9 
   35    33    36    38     9 
   35    33    36    53     9 
   33    36    38    39     9 
   37    36    38    39     9 
   53    36    38    39     9 
   33    36    53    54     9 
   33    36    53    55     9 
   33    36    53    58     9 
   37    36    53    54     9 
   37    36    53    55     9 
   37    36    53    58     9 
   38    36    53    54     9 
   38    36    53    55     9 
   38    36    53    58     9 
   36    38    39    40     9 
   36    38    39    41     9 
   36    38    39    55     9 
   38    39    41    42     9 
   38    39    41    51     9 
   40    39    41    42     9 
   40    39    41    51     9 
   55    39    41    42     9 
   55    39    41    51     9 
   38    39    55    53     9 
   38    39    55    56     9 
   38    39    55    57     9 
   40    39    55    53     9 
   40    39    55    56     9 
   40    39    55    57     9 
   41    39    55    53     9 
   41    39    55    56     9 
   41    39    55    57     9 
   39    41    42    43     9 
   39    41    42    44     9 
   51    41    42    43     9 
   51    41    42    44     9 
   39    41    51    50     9 
   39    41    51    52     9 
   42    41    51    50     9 
   42    41    51    52     9 
   41    42    44    45     9 
   41    42    44    46     9 
   43    42    44    45     9 
   43    42    44    46     9 
   42    44    46    47     9 
   42    44    46    50     9 
   45    44    46    47     9 
   45    44    46    50     9 
   44    46    47    48     9 
   44    46    47    49     9 
   50    46    47    48     9 
   50    46    47    49     9 
   44    46    50    51     9 
   47    46    50    51     9 
   46    50    51    41     9 
   46    50    51    52     9 
   36    53    55    39     9 
   36    53    55    56     9 
   36    53    55    57     9 
   54    53    55    39     9 
   54    53    55    56     9 
   54    53    55    57     9 
   58    53    55    39     9 
   58    53    55    56     9 
   58    53    55    57     9 
   36    53    58    59     9 
   54    53    58    59     9 
   55    53    58    59     9 
   53    58    59    60     9 
   53    58    59    61     9 
   53    58    59    62     9 
   58    59    62    63     9 
   60    59    62    63     9 
   61    59    62    63     9 
   59    62    63    64     9 
   59    62    63    65     9 
   59    62    63    66     9 
   62    63    66    67     9 
   62    63    66    68     9 
   62    63    66    83     9 
   64    63    66    67     9 
   64    63    66    68     9 
   64    63    66    83     9 
   65    63    66    67     9 
   65    63    66    68     9 
   65    63    66    83     9 
   63    66    68    69     9 
   67    66    68    69     9 
   83    66    68    69     9 
   63    66    83    84     9 
   63    66    83    85     9 
   63    66    83    88     9 
   67    66    83    84     9 
   67    66    83    85     9 
   67    66    83    88     9 
   68    66    83    84     9 
   68    66    83    85     9 
   68    66    83    88     9 
   66    68    69    70     9 
   66    68    69    71     9 
   66    68    69    85     9 
   68    69    71    72     9 
   68    69    71    81     9 
   70    69    71    72     9 
   70    69    71    81     9 
   85    69    71    72     9 
   85    69    71    81     9 
   68    69    85    83     9 
   68    69    85    86     9 
   68    69    85    87     9 
   70    69    85    83     9 
   70    69    85    86     9 
   70    69    85    87     9 
   71    69    85    83     9 
   71    69    85    86     9 
   71    69    85    87     9 
   69    71    72    73     9 
   69    71    72    74     9 
   81    71    72    73     9 
   81    71    72    74     9 
   69    71    81    80     9 
   69    71    81    82     9 
   72    71    81    80     9 
   72    71    81    82     9 
   71    72    74    75     9 
   71    72    74    76     9 
   73    72    74    75     9 
   73    72    74    76     9 
   72    74    76    77     9 
   72    74    76    80     9 
   75    74    76    77     9 
   75    74    76    80     9 
   74    76    77    78     9 
   74    76    77    79     9 
   80    76    77    78     9 
   80    76    77    79     9 
   74    76    80    81     9 
   77    76    80    81     9 
   76    80    81    71     9 
   76    80    81    82     9 
   66    83    85    69     9 
   66    83    85    86     9 
   66    83    85    87     9 
   84    83    85    69     9 
   84    83    85    86     9 
   84    83    85    87     9 
   88    83    85    69     9 
   88    83    85    86     9 
   88    83    85    87     9 
   66    83    88    89     9 
   84    83    88    89     9 
   85    83    88    89     9 
   83    88    89    90     9 
   83    88    89    91     9 
   83    88    89    92     9 
   88    89    92    93     9 
   90    89    92    93     9 
   91    89    92    93     9 
   89    92    93    94     9 
   89    92    93    95     9 
   89    92    93    96     9 
   92    93    96    97     9 
   92    93    96    98     9 
   92    93    96   116     9 
   94    93    96    97     9 
   94    93    96    98     9 
   94    93    96   116     9 
   95    93    96    97     9 
   95    93    96    98     9 
   95    93    96   116     9 
   93    96    98    99     9 
   97    96    98    99     9 
  116    96    98    99     9 
   93    96   116   117     9 
   93    96   116   118     9 
   93    96   116   121     9 
   97    96   116   117     9 
   97    96   116   118     9 
   97    96   116   121     9 
   98    96   116   117     9 
   98    96   116   118     9 
   98    96   116   121     9 
   96    98    99   100     9 
   96    98    99   101     9 
   96    98    99   118     9 
   98    99   101   102     9 
   98    99   101   115     9 
  100    99   101   102     9 
  100    99   101   115     9 
  118    99   101   102     9 
  118    99   101   115     9 
   98    99   118   116     9 
   98    99   118   119     9 
   98    99   118   120     9 
  100    99   118   116     9 
  100    99   118   119     9 
  100    99   118   120     9 
  101    99   118   116     9 
  101    99   118   119     9 
  101    99   118   120     9 
   99   101   102   103     9 
   99   101   102   104     9 
  115   101   102   103     9 
  115   101   102   104     9 
   99   101   115   105     9 
   99   101   115   114     9 
  102   101   115   105     9 
  102   101   115   114     9 
  101   102   104   105     9 
  103   102   104   105     9 
  102   104   105   106     9 
  102   104   105   115     9 
  104   105   106   107     9 
  104   105   106   108     9 
  115   105   106   107     9 
  115   105   106   108     9 
  104   105   115   101     9 
  104   105   115   114     9 
  106   105   115   101     9 
  106   105   115   114     9 
  105   106   108   109     9 
  105   106   108   110     9 
  107   106   108   109     9 
  107   106   108   110     9 
  106   108   110   111     9 
  106   108   110   114     9 
  109   108   110   111     9 
  109   108   110   114     9 
  108   110   111   112     9 
  108   110   111   113     9 
  114   110   111   112     9 
  114   110   111   113     9 
  108   110   114   115     9 
  111   110   114   115     9 
  110   114   115   101     9 
  110   114   115   105     9 
   96   116   118    99     9 
   96   116   118   119     9 
   96   116   118   120     9 
  117   116   118    99     9 
  117   116   118   119     9 
  117   116   118   120     9 
  121   116   118    99     9 
  121   116   118   119     9 
  121   116   118   120     9 
   96   116   121   122     9 
  117   116   121   122     9 
  118   116   121   122     9 
  116   121   122   123     9 
  116   121   122   124     9 
  116   121   122   125     9 
  121   122   125   126     9 
  123   122   125   126     9 
  124   122   125   126     9 
  122   125   126   127     9 
  122   125   126   128     9 
  122   125   126   129     9 
  125   126   129   130     9 
  125   126   129   131     9 
  125   126   129   149     9 
  127   126   129   130     9 
  127   126   129   131     9 
  127   126   129   149     9 
  128   126   129   130     9 
  128   126   129   131     9 
  128   126   129   149     9 
  126   129   131   132     9 
  130   129   131   132     9 
  149   129   131   132     9 
  126   129   149   150     9 
  126   129   149   151     9 
  126   129   149   154     9 
  130   129   149   150     9 
  130   129   149   151     9 
  130   129   149   154     9 
  131   129   149   150     9 
  131   129   149   151     9 
  131   129   149   154     9 
  129   131   132   133     9 
  129   131   132   134     9 
  129   131   132   151     9 
  131   132   134   135     9 
  131   132   134   148     9 
  133   132   134   135     9 
  133   132   134   148     9 
  151   132   134   135     9 
  151   132   134   148     9 
  131   132   151   149     9 
  131   132   151   152     9 
  131   132   151   153     9 
  133   132   151   149     9 
  133   132   151   152     9 
  133   132   151   153     9 
  134   132   151   149     9 
  134   132   151   152     9 
  134   132   151   153     9 
  132   134   135   136     9 
  132   134   135   137     9 
  148   134   135   136     9 
  148   134   135   137     9 
  132   134   148   138     9 
  132   134   148   147     9 
  135   134   148   138     9 
  135   134   148   147     9 
  134   135   137   138     9 
  136   135   137   138     9 
  135   137   138   139     9 
  135   137   138   148     9 
  137   138   139   140     9 
  137   138   139   141     9 
  148   138   139   140     9 
  148   138   139   141     9 
  137   138   148   134     9 
  137   138   148   147     9 
  139   138   148   134     9 
  139   138   148   147     9 
  138   139   141   142     9 
  138   139   141   143     9 
  140   139   141   142     9 
  140   139   141   143     9 
  139   141   143   144     9 
  139   141   143   147     9 
  142   141   143   144     9 
  142   141   143   147     9 
  141   143   144   145     9 
  141   143   144   146     9 
  147   143   144   145     9 
  147   143   144   146     9 
  141   143   147   148     9 
  144   143   147   148     9 
  143   147   148   134     9 
  143   147   148   138     9 
  129   149   151   132     9 
  129   149   151   152     9 
  129   149   151   153     9 
  150   149   151   132     9 
  150   149   151   152     9 
  150   149   151   153     9 
  154   149   151   132     9 
  154   149   151   152     9 
  154   149   151   153     9 
  129   149   154   155     9 
  150   149   154   155     9 
  151   149   154   155     9 
  149   154   155   156     9 
  149   154   155   157     9 
  149   154   155   158     9 
  154   155   158   159     9 
  156   155   158   159     9 
  157   155   158   159     9 
  155   158   159   160     9 
  155   158   159   161     9 
  155   158   159   162     9 
  158   159   162   163     9 
  158   159   162   164     9 
  158   159   162   179     9 
  160   159   162   163     9 
  160   159   162   164     9 
  160   159   162   179     9 
  161   159   162   163     9 
  161   159   162   164     9 
  161   159   162   179     9 
  159   162   164   165     9 
  163   162   164   165     9 
  179   162   164   165     9 
  159   162   179   180     9 
  159   162   179   181     9 
  159   162   179   184     9 
  163   162   179   180     9 
  163   162   179   181     9 
  163   162   179   184     9 
  164   162   179   180     9 
  164   162   179   181     9 
  164   162   179   184     9 
  162   164   165   166     9 
  162   164   165   167     9 
  162   164   165   181     9 
  164   165   167   168     9 
  164   165   167   177     9 
  166   165   167   168     9 
  166   165   167   177     9 
  181   165   167   168     9 
  181   165   167   177     9 
  164   165   181   179     9 
  164   165   181   182     9 
  164   165   181   183     9 
  166   165   181   179     9 
  166   165   181   182     9 
  166   165   181   183     9 
  167   165   181   179     9 
  167   165   181   182     9 
  167   165   181   183     9 
  165   167   168   169     9 
  165   167   168   170     9 
  177   167   168   169     9 
  177   167   168   170     9 
  165   167   177   176     9 
  165   167   177   178     9 
  168   167   177   176     9 
  168   167   177   178     9 
  167   168   170   171     9 
  167   168   170   172     9 
  169   168   170   171     9 
  169   168   170   172     9 
  168   170   172   173     9 
  168   170   172   176     9 
  171   170   172   173     9 
  171   170   172   176     9 
  170   172   173   174     9 
  170   172   173   175     9 
  176   172   173   174     9 
  176   172   173   175     9 
  170   172   176   177     9 
  173   172   176   177     9 
  172   176   177   167     9 
  172   176   177   178     9 
  162   179   181   165     9 
  162   179   181   182     9 
  162   179   181   183     9 
  180   179   181   165     9 
  180   179   181   182     9 
  180   179   181   183     9 
  184   179   181   165     9 
  184   179   181   182     9 
  184   179   181   183     9 
  162   179   184   185     9 
  180   179   184   185     9 
  181   179   184   185     9 
  179   184   185   186     9 
  179   184   185   187     9 
  179   184   185   188     9 
  184   185   188   189     9 
  186   185   188   189     9 
  187   185   188   189     9 
  185   188   189   190     9 
  185   188   189   191     9 
  185   188   189   192     9 
  188   189   192   193     9 
  188   189   192   194     9 
  188   189   192   209     9 
  190   189   192   193     9 
  190   189   192   194     9 
  190   189   192   209     9 
  191   189   192   193     9 
  191   189   192   194     9 
  191   189   192   209     9 
  189   192   194   195     9 
  193   192   194   195     9 
  209   192   194   195     9 
  189   192   209   210     9 
  189   192   209   211     9 
  189   192   209   214     9 
  193   192   209   210     9 
  193   192   209   211     9 
  193   192   209   214     9 
  194   192   209   210     9 
  194   192   209   211     9 
  194   192   209   214     9 
  192   194   195   196     9 
  192   194   195   197     9 
  192   194   195   211     9 
  194   195   197   198     9 
  194   195   197   207     9 
  196   195   197   198     9 
  196   195   197   207     9 
  211   195   197   198     9 
  211   195   197   207     9 
  194   195   211   209     9 
  194   195   211   212     9 
  194   195   211   213     9 
  196   195   211   209     9 
  196   195   211   212     9 
  196   195   211   213     9 
  197   195   211   209     9 
  197   195   211   212     9 
  197   195   211   213     9 
  195   197   198   199     9 
  195   197   198   200     9 
  207   197   198   199     9 
  207   197   198   200     9 
  195   197   207   206     9 
  195   197   207   208     9 
  198   197   207   206     9 
  198   197   207   208     9 
  197   198   200   201     9 
  197   198   200   202     9 
  199   198   200   201     9 
  199   198   200   202     9 
  198   200   202   203     9 
  198   200   202   206     9 
  201   200   202   203     9 
  201   200   202   206     9 
  200   202   203   204     9 
  200   202   203   205     9 
  206   202   203   204     9 
  206   202   203   205     9 
  200   202   206   207     9 
  203   202   206   207     9 
  202   206   207   197     9 
  202   206   207   208     9 
  192   209   211   195     9 
  192   209   211   212     9 
  192   209   211   213     9 
  210   209   211   195     9 
  210   209   211   212     9 
  210   209   211   213     9 
  214   209   211   195     9 
  214   209   211   212     9 
  214   209   211   213     9 
  192   209   214   215     9 
  210   209   214   215     9 
  211   209   214   215     9 
  209   214   215   216     9 
  209   214   215   217     9 
  209   214   215   218     9 
  214   215   218   219     9 
  216   215   218   219     9 
  217   215   218   219     9 
  215   218   219   220     9 
  215   218   219   221     9 
  215   218   219   222     9 
  218   219   222   223     9 
  218   219   222   224     9 
  218   219   222   239     9 
  220   219   222   223     9 
  220   219   222   224     9 
  220   219   222   239     9 
  221   219   222   223     9 
  221   219   222   224     9 
  221   219   222   239     9 
  219   222   224   225     9 
  223   222   224   225     9 
  239   222   224   225     9 
  219   222   239   240     9 
  219   222   239   241     9 
  219   222   239   244     9 
  223   222   239   240     9 
  223   222   239   241     9 
  223   222   239   244     9 
  224   222   239   240     9 
  224   222   239   241     9 
  224   222   239   244     9 
  222   224   225   226     9 
  222   224   225   227     9 
  222   224   225   241     9 
  224   225   227   228     9 
  224   225   227   237     9 
  226   225   227   228     9 
  226   225   227   237     9 
  241   225   227   228     9 
  241   225   227   237     9 
  224   225   241   239     9 
  224   225   241   242     9 
  224   225   241   243     9 
  226   225   241   239     9 
  226   225   241   242     9 
  226   225   241   243     9 
  227   225   241   239     9 
  227   225   241   242     9 
  227   225   241   243     9 
  225   227   228   229     9 
  225   227   228   230     9 
  237   227   228   229     9 
  237   227   228   230     9 
  225   227   237   236     9 
  225   227   237   238     9 
  228   227   237   236     9 
  228   227   237   238     9 
  227   228   230   231     9 
  227   228   230   232     9 
  229   228   230   231     9 
  229   228   230   232     9 
  228   230   232   233     9 
  228   230   232   236     9 
  231   230   232   233     9 
  231   230   232   236     9 
  230   232   233   234     9 
  230   232   233   235     9 
  236   232   233   234     9 
  236   232   233   235     9 
  230   232   236   237     9 
  233   232   236   237     9 
  232   236   237   227     9 
  232   236   237   238     9 
  222   239   241   225     9 
  222   239   241   242     9 
  222   239   241   243     9 
  240   239   241   225     9 
  240   239   241   242     9 
  240   239   241   243     9 
  244   239   241   225     9 
  244   239   241   242     9 
  244   239   241   243     9 
  222   239   244   245     9 
  240   239   244   245     9 
  241   239   244   245     9 
  239   244   245   246     9 
  239   244   245   247     9 
  239   244   245   248     9 
  244   245   248   249     9 
  246   245   248   249     9 
  247   245   248   249     9 
  245   248   249   250     9 
  245   248   249   251     9 
  245   248   249   252     9 
  248   249   252   253     9 
  248   249   252   254     9 
  248   249   252   269     9 
  250   249   252   253     9 
  250   249   252   254     9 
  250   249   252   269     9 
  251   249   252   253     9 
  251   249   252   254     9 
  251   249   252   269     9 
  249   252   254   255     9 
  253   252   254   255     9 
  269   252   254   255     9 
  249   252   269   270     9 
  249   252   269   271     9 
  249   252   269   274     9 
  253   252   269   270     9 
  253   252   269   271     9 
  253   252   269   274     9 
  254   252   269   270     9 
  254   252   269   271     9 
  254   252   269   274     9 
  252   254   255   256     9 
  252   254   255   257     9 
  252   254   255   271     9 
  254   255   257   258     9 
  254   255   257   267     9 
  256   255   257   258     9 
  256   255   257   267     9 
  271   255   257   258     9 
  271   255   257   267     9 
  254   255   271   269     9 
  254   255   271   272     9 
  254   255   271   273     9 
  256   255   271   269     9 
  256   255   271   272     9 
  256   255   271   273     9 
  257   255   271   269     9 
  257   255   271   272     9 
  257   255   271   273     9 
  255   257   258   259     9 
  255   257   258   260     9 
  267   257   258   259     9 
  267   257   258   260     9 
  255   257   267   266     9 
  255   257   267   268     9 
  258   257   267   266     9 
  258   257   267   268     9 
  257   258   260   261     9 
  257   258   260   262     9 
  259   258   260   261     9 
  259   258   260   262     9 
  258   260   262   263     9 
  258   260   262   266     9 
  261   260   262   263     9 
  261   260   262   266     9 
  260   262   263   264     9 
  260   262   263   265     9 
  266   262   263   264     9 
  266   262   263   265     9 
  260   262   266   267     9 
  263   262   266   267     9 
  262   266   267   257     9 
  262   266   267   268     9 
  252   269   271   255     9 
  252   269   271   272     9 
  252   269   271   273     9 
  270   269   271   255     9 
  270   269   271   272     9 
  270   269   271   273     9 
  274   269   271   255     9 
  274   269   271   272     9 
  274   269   271   273     9 
  252   269   274   275     9 
  270   269   274   275     9 
  271   269   274   275     9 
  269   274   275   276     9 
  269   274   275   277     9 
  269   274   275   278     9 
  274   275   278   279     9 
  276   275   278   279     9 
  277   275   278   279     9 
  275   278   279   280     9 
  275   278   279   281     9 
  275   278   279   282     9 
  278   279   282   283     9 
  278   279   282   284     9 
  278   279   282   299     9 
  280   279   282   283     9 
  280   279   282   284     9 
  280   279   282   299     9 
  281   279   282   283     9 
  281   279   282   284     9 
  281   279   282   299     9 
  279   282   284   285     9 
  283   282   284   285     9 
  299   282   284   285     9 
  279   282   299   300     9 
  279   282   299   301     9 
  279   282   299   304     9 
  283   282   299   300     9 
  283   282   299   301     9 
  283   282   299   304     9 
  284   282   299   300     9 
  284   282   299   301     9 
  284   282   299   304     9 
  282   284   285   286     9 
  282   284   285   287     9 
  282   284   285   301     9 
  284   285   287   288     9 
  284   285   287   297     9 
  286   285   287   288     9 
  286   285   287   297     9 
  301   285   287   288     9 
  301   285   287   297     9 
  284   285   301   299     9 
  284   285   301   302     9 
  284   285   301   303     9 
  286   285   301   299     9 
  286   285   301   302     9 
  286   285   301   303     9 
  287   285   301   299     9 
  287   285   301   302     9 
  287   285   301   303     9 
  285   287   288   289     9 
  285   287   288   290     9 
  297   287   288   289     9 
  297   287   288   290     9 
  285   287   297   296     9 
  285   287   297   298     9 
  288   287   297   296     9 
  288   287   297   298     9 
  287   288   290   291     9 
  287   288   290   292     9 
  289   288   290   291     9 
  289   288   290   292     9 
  288   290   292   293     9 
  288   290   292   296     9 
  291   290   292   293     9 
  291   290   292   296     9 
  290   292   293   294     9 
  290   292   293   295     9 
  296   292   293   294     9 
  296   292   293   295     9 
  290   292   296   297     9 
  293   292   296   297     9 
  292   296   297   287     9 
  292   296   297   298     9 
  282   299   301   285     9 
  282   299   301   302     9 
  282   299   301   303     9 
  300   299   301   285     9 
  300   299   301   302     9 
  300   299   301   303     9 
  304   299   301   285     9 
  304   299   301   302     9 
  304   299   301   303     9 
  282   299   304   305     9 
  300   299   304   305     9 
  301   299   304   305     9 
  299   304   305   306     9 
  299   304   305   307     9 
  299   304   305   308     9 
  304   305   308   309     9 
  306   305   308   309     9 
  307   305   308   309     9 
  305   308   309   310     9 
  305   308   309   311     9 
  305   308   309   312     9 
  308   309   312   313     9 
  308   309   312   314     9 
  308   309   312   332     9 
  310   309   312   313     9 
  310   309   312   314     9 
  310   309   312   332     9 
  311   309   312   313     9 
  311   309   312   314     9 
  311   309   312   332     9 
  309   312   314   315     9 
  313   312   314   315     9 
  332   312   314   315     9 
  309   312   332   333     9 
  309   312   332   334     9 
  309   312   332   337     9 
  313   312   332   333     9 
  313   312   332   334     9 
  313   312   332   337     9 
  314   312   332   333     9 
  314   312   332   334     9 
  314   312   332   337     9 
  312   314   315   316     9 
  312   314   315   317     9 
  312   314   315   334     9 
  314   315   317   318     9 
  314   315   317   331     9 
  316   315   317   318     9 
  316   315   317   331     9 
  334   315   317   318     9 
  334   315   317   331     9 
  314   315   334   332     9 
  314   315   334   335     9 
  314   315   334   336     9 
  316   315   334   332     9 
  316   315   334   335     9 
  316   315   334   336     9 
  317   315   334   332     9 
  317   315   334   335     9 
  317   315   334   336     9 
  315   317   318   319     9 
  315   317   318   320     9 
  331   317   318   319     9 
  331   317   318   320     9 
  315   317   331   321     9 
  315   317   331   330     9 
  318   317   331   321     9 
  318   317   331   330     9 
  317   318   320   321     9 
  319   318   320   321     9 
  318   320   321   322     9 
  318   320   321   331     9 
  320   321   322   323     9 
  320   321   322   324     9 
  331   321   322   323     9 
  331   321   322   324     9 
  320   321   331   317     9 
  320   321   331   330     9 
  322   321   331   317     9 
  322   321   331   330     9 
  321   322   324   325     9 
  321   322   324   326     9 
  323   322   324   325     9 
  323   322   324   326     9 
  322   324   326   327     9 
  322   324   326   330     9 
  325   324   326   327     9 
  325   324   326   330     9 
  324   326   327   328     9 
  324   326   327   329     9 
  330   326   327   328     9 
  330   326   327   329     9 
  324   326   330   331     9 
  327   326   330   331     9 
  326   330   331   317     9 
  326   330   331   321     9 
  312   332   334   315     9 
  312   332   334   335     9 
  312   332   334   336     9 
  333   332   334   315     9 
  333   332   334   335     9 
  333   332   334   336     9 
  337   332   334   315     9 
  337   332   334   335     9 
  337   332   334   336     9 
  312   332   337   338     9 
  333   332   337   338     9 
  334   332   337   338     9 
  332   337   338   339     9 
  332   337   338   340     9 
  332   337   338   341     9 
  337   338   341   342     9 
  339   338   341   342     9 
  340   338   341   342     9 
  338   341   342   343     9 
  338   341   342   344     9 
  338   341   342   345     9 
  341   342   345   346     9 
  341   342   345   347     9 
  341   342   345   362     9 
  343   342   345   346     9 
  343   342   345   347     9 
  343   342   345   362     9 
  344   342   345   346     9 
  344   342   345   347     9 
  344   342   345   362     9 
  342   345   347   348     9 
  346   345   347   348     9 
  362   345   347   348     9 
  342   345   362   363     9 
  342   345   362   364     9 
  342   345   362   367     9 
  346   345   362   363     9 
  346   345   362   364     9 
  346   345   362   367     9 
  347   345   362   363     9 
  347   345   362   364     9 
  347   345   362   367     9 
  345   347   348   349     9 
  345   347   348   350     9 
  345   347   348   364     9 
  347   348   350   351     9 
  347   348   350   360     9 
  349   348   350   351     9 
  349   348   350   360     9 
  364   348   350   351     9 
  364   348   350   360     9 
  347   348   364   362     9 
  347   348   364   365     9 
  347   348   364   366     9 
  349   348   364   362     9 
  349   348   364   365     9 
  349   348   364   366     9 
  350   348   364   362     9 
  350   348   364   365     9 
  350   348   364   366     9 
  348   350   351   352     9 
  348   350   351   353     9 
  360   350   351   352     9 
  360   350   351   353     9 
  348   350   360   359     9 
  348   350   360   361     9 
  351   350   360   359     9 
  351   350   360   361     9 
  350   351   353   354     9 
  350   351   353   355     9 
  352   351   353   354     9 
  352   351   353   355     9 
  351   353   355   356     9 
  351   353   355   359     9 
  354   353   355   356     9 
  354   353   355   359     9 
  353   355   356   357     9 
  353   355   356   358     9 
  359   355   356   357     9 
  359   355   356   358     9 
  353   355   359   360     9 
  356   355   359   360     9 
  355   359   360   350     9 
  355   359   360   361     9 
  345   362   364   348     9 
  345   362   364   365     9 
  345   362   364   366     9 
  363   362   364   348     9 
  363   362   364   365     9 
  363   362   364   366     9 
  367   362   364   348     9 
  367   362   364   365     9 
  367   362   364   366     9 
  345   362   367   368     9 
  363   362   367   368     9 
  364   362   367   368     9 
  362   367   368   369     9 
  362   367   368   370     9 
  362   367   368   371     9 
  367   368   371   372     9 
  369   368   371   372     9 
  370   368   371   372     9 
  368   371   372   373     9 
  368   371   372   374     9 
  368   371   372   375     9 
  371   372   375   376     9 
  371   372   375   377     9 
  371   372   375   392     9 
  373   372   375   376     9 
  373   372   375   377     9 
  373   372   375   392     9 
  374   372   375   376     9 
  374   372   375   377     9 
  374   372   375   392     9 
  372   375   377   378     9 
  376   375   377   378     9 
  392   375   377   378     9 
  372   375   392   393     9 
  372   375   392   394     9 
  372   375   392   397     9 
  376   375   392   393     9 
  376   375   392   394     9 
  376   375   392   397     9 
  377   375   392   393     9 
  377   375   392   394     9 
  377   375   392   397     9 
  375   377   378   379     9 
  375   377   378   380     9 
  375   377   378   394     9 
  377   378   380   381     9 
  377   378   380   390     9 
  379   378   380   381     9 
  379   378   380   390     9 
  394   378   380   381     9 
  394   378   380   390     9 
  377   378   394   392     9 
  377   378   394   395     9 
  377   378   394   396     9 
  379   378   394   392     9 
  379   378   394   395     9 
  379   378   394   396     9 
  380   378   394   392     9 
  380   378   394   395     9 
  380   378   394   396     9 
  378   380   381   382     9 
  378   380   381   383     9 
  390   380   381   382     9 
  390   380   381   383     9 
  378   380   390   389     9 
  378   380   390   391     9 
  381   380   390   389     9 
  381   380   390   391     9 
  380   381   383   384     9 
  380   381   383   385     9 
  382   381   383   384     9 
  382   381   383   385     9 
  381   383   385   386     9 
  381   383   385   389     9 
  384   383   385   386     9 
  384   383   385   389     9 
  383   385   386   387     9 
  383   385   386   388     9 
  389   385   386   387     9 
  389   385   386   388     9 
  383   385   389   390     9 
  386   385   389   390     9 
  385   389   390   380     9 
  385   389   390   391     9 
  375   392   394   378     9 
  375   392   394   395     9 
  375   392   394   396     9 
  393   392   394   378     9 
  393   392   394   395     9 
  393   392   394   396     9 
  397   392   394   378     9 
  397   392   394   395     9 
  397   392   394   396     9 
  375   392   397   398     9 
  393   392   397   398     9 
  394   392   397   398     9 
  392   397   398   399     9 
  392   397   398   400     9 
  392   397   398   401     9 
  397   398   401   402     9 
  399   398   401   402     9 
  400   398   401   402     9 
  398   401   402   403     9 
  398   401   402   404     9 
  398   401   402   405     9 
  401   402   405   406     9 
  401   402   405   407     9 
  401   402   405   424     9 
  403   402   405   406     9 
  403   402   405   407     9 
  403   402   405   424     9 
  404   402   405   406     9 
  404   402   405   407     9 
  404   402   405   424     9 
  402   405   407   408     9 
  406   405   407   408     9 
  424   405   407   408     9 
  402   405   424   425     9 
  402   405   424   426     9 
  402   405   424   429     9 
  406   405   424   425     9 
  406   405   424   426     9 
  406   405   424   429     9 
  407   405   424   425     9 
  407   405   424   426     9 
  407   405   424   429     9 
  405   407   408   409     9 
  405   407   408   410     9 
  405   407   408   426     9 
  407   408   410   411     9 
  407   408   410   423     9 
  409   408   410   411     9 
  409   408   410   423     9 
  426   408   410   411     9 
  426   408   410   423     9 
  407   408   426   424     9 
  407   408   426   427     9 
  407   408   426   428     9 
  409   408   426   424     9 
  409   408   426   427     9 
  409   408   426   428     9 
  410   408   426   424     9 
  410   408   426   427     9 
  410   408   426   428     9 
  408   410   411   412     9 
  408   410   411   413     9 
  423   410   411   412     9 
  423   410   411   413     9 
  408   410   423   414     9 
  408   410   423   422     9 
  411   410   423   414     9 
  411   410   423   422     9 
  410   411   413   414     9 
  412   411   413   414     9 
  411   413   414   415     9 
  411   413   414   423     9 
  413   414   415   416     9 
  413   414   415   419     9 
  423   414   415   416     9 
  423   414   415   419     9 
  413   414   423   410     9 
  413   414   423   422     9 
  415   414   423   410     9 
  415   414   423   422     9 
  414   415   416   417     9 
  414   415   416   418     9 
  419   415   416   417     9 
  419   415   416   418     9 
  414   415   419   420     9 
  416   415   419   420     9 
  415   419   420   421     9 
  415   419   420   422     9 
  419   420   422   423     9 
  421   420   422   423     9 
  420   422   423   410     9 
  420   422   423   414     9 
  405   424   426   408     9 
  405   424   426   427     9 
  405   424   426   428     9 
  425   424   426   408     9 
  425   424   426   427     9 
  425   424   426   428     9 
  429   424   426   408     9 
  429   424   426   427     9 
  429   424   426   428     9 
  405   424   429   430     9 
  425   424   429   430     9 
  426   424   429   430     9 
  424   429   430   431     9 
  424   429   430   432     9 
  424   429   430   433     9 
  429   430   433   434     9 
  431   430   433   434     9 
  432   430   433   434     9 
  430   433   434   435     9 
  430   433   434   436     9 
  430   433   434   437     9 
  433   434   437   438     9 
  433   434   437   439     9 
  433   434   437   456     9 
  435   434   437   438     9 
  435   434   437   439     9 
  435   434   437   456     9 
  436   434   437   438     9 
  436   434   437   439     9 
  436   434   437   456     9 
  434   437   439   440     9 
  438   437   439   440     9 
  456   437   439   440     9 
  434   437   456   457     9 
  434   437   456   458     9 
  434   437   456   461     9 
  438   437   456   457     9 
  438   437   456   458     9 
  438   437   456   461     9 
  439   437   456   457     9 
  439   437   456   458     9 
  439   437   456   461     9 
  437   439   440   441     9 
  437   439   440   442     9 
  437   439   440   458     9 
  439   440   442   443     9 
  439   440   442   454     9 
  441   440   442   443     9 
  441   440   442   454     9 
  458   440   442   443     9 
  458   440   442   454     9 
  439   440   458   456     9 
  439   440   458   459     9 
  439   440   458   460     9 
  441   440   458   456     9 
  441   440   458   459     9 
  441   440   458   460     9 
  442   440   458   456     9 
  442   440   458   459     9 
  442   440   458   460     9 
  440   442   443   444     9 
  440   442   443   445     9 
  454   442   443   444     9 
  454   442   443   445     9 
  440   442   454   452     9 
  440   442   454   455     9 
  443   442   454   452     9 
  443   442   454   455     9 
  442   443   445   446     9 
  442   443   445   450     9 
  444   443   445   446     9 
  444   443   445   450     9 
  443   445   446   447     9 
  443   445   446   448     9 
  443   445   446   449     9 
  450   445   446   447     9 
  450   445   446   448     9 
  450   445   446   449     9 
  443   445   450   451     9 
  443   445   450   452     9 
  446   445   450   451     9 
  446   445   450   452     9 
  445   450   452   453     9 
  445   450   452   454     9 
  451   450   452   453     9 
  451   450   452   454     9 
  450   452   454   442     9 
  450   452   454   455     9 
  453   452   454   442     9 
  453   452   454   455     9 
  437   456   458   440     9 
  437   456   458   459     9 
  437   456   458   460     9 
  457   456   458   440     9 
  457   456   458   459     9 
  457   456   458   460     9 
  461   456   458   440     9 
  461   456   458   459     9 
  461   456   458   460     9 
  437   456   461   462     9 
  457   456   461   462     9 
  458   456   461   462     9 
  456   461   462   463     9 
  456   461   462   464     9 
  456   461   462   465     9 
  461   462   465   466     9 
  463   462   465   466     9 
  464   462   465   466     9 
  462   465   466   467     9 
  462   465   466   468     9 
  462   465   466   469     9 
  465   466   469   470     9 
  465   466   469   471     9 
  465   466   469   488     9 
  467   466   469   470     9 
  467   466   469   471     9 
  467   466   469   488     9 
  468   466   469   470     9 
  468   466   469   471     9 
  468   466   469   488     9 
  466   469   471   472     9 
  470   469   471   472     9 
  488   469   471   472     9 
  466   469   488   489     9 
  466   469   488   490     9 
  466   469   488   493     9 
  470   469   488   489     9 
  470   469   488   490     9 
  470   469   488   493     9 
  471   469   488   489     9 
  471   469   488   490     9 
  471   469   488   493     9 
  469   471   472   473     9 
  469   471   472   474     9 
  469   471   472   490     9 
  471   472   474   475     9 
  471   472   474   486     9 
  473   472   474   475     9 
  473   472   474   486     9 
  490   472   474   475     9 
  490   472   474   486     9 
  471   472   490   488     9 
  471   472   490   491     9 
  471   472   490   492     9 
  473   472   490   488     9 
  473   472   490   491     9 
  473   472   490   492     9 
  474   472   490   488     9 
  474   472   490   491     9 
  474   472   490   492     9 
  472   474   475   476     9 
  472   474   475   477     9 
  486   474   475   476     9 
  486   474   475   477     9 
  472   474   486   484     9 
  472   474   486   487     9 
  475   474   486   484     9 
  475   474   486   487     9 
  474   475   477   478     9 
  474   475   477   482     9 
  476   475   477   478     9 
  476   475   477   482     9 
  475   477   478   479     9 
  475   477   478   480     9 
  475   477   478   481     9 
  482   477   478   479     9 
  482   477   478   480     9 
  482   477   478   481     9 
  475   477   482   483     9 
  475   477   482   484     9 
  478   477   482   483     9 
  478   477   482   484     9 
  477   482   484   485     9 
  477   482   484   486     9 
  483   482   484   485     9 
  483   482   484   486     9 
  482   484   486   474     9 
  482   484   486   487     9 
  485   484   486   474     9 
  485   484   486   487     9 
  469   488   490   472     9 
  469   488   490   491     9 
  469   488   490   492     9 
  489   488   490   472     9 
  489   488   490   491     9 
  489   488   490   492     9 
  493   488   490   472     9 
  493   488   490   491     9 
  493   488   490   492     9 
  469   488   493   494     9 
  489   488   493   494     9 
  490   488   493   494     9 
  488   493   494   495     9 
  488   493   494   496     9 
  488   493   494   497     9 
  493   494   497   498     9 
  495   494   497   498     9 
  496   494   497   498     9 
  494   497   498   499     9 
  494   497   498   500     9 
  494   497   498   501     9 
  497   498   501   502     9 
  497   498   501   503     9 
  497   498   501   520     9 
  499   498   501   502     9 
  499   498   501   503     9 
  499   498   501   520     9 
  500   498   501   502     9 
  500   498   501   503     9 
  500   498   501   520     9 
  498   501   503   504     9 
  502   501   503   504     9 
  520   501   503   504     9 
  498   501   520   521     9 
  498   501   520   522     9 
  498   501   520   525     9 
  502   501   520   521     9 
  502   501   520   522     9 
  502   501   520   525     9 
  503   501   520   521     9 
  503   501   520   522     9 
  503   501   520   525     9 
  501   503   504   505     9 
  501   503   504   506     9 
  501   503   504   522     9 
  503   504   506   507     9 
  503   504   506   518     9 
  505   504   506   507     9 
  505   504   506   518     9 
  522   504   506   507     9 
  522   504   506   518     9 
  503   504   522   520     9 
  503   504   522   523     9 
  503   504   522   524     9 
  505   504   522   520     9 
  505   504   522   523     9 
  505   504   522   524     9 
  506   504   522   520     9 
  506   504   522   523     9 
  506   504   522   524     9 
  504   506   507   508     9 
  504   506   507   509     9 
  518   506   507   508     9 
  518   506   507   509     9 
  504   506   518   516     9 
  504   506   518   519     9 
  507   506   518   516     9 
  507   506   518   519     9 
  506   507   509   510     9 
  506   507   509   514     9 
  508   507   509   510     9 
  508   507   509   514     9 
  507   509   510   511     9 
  507   509   510   512     9 
  507   509   510   513     9 
  514   509   510   511     9 
  514   509   510   512     9 
  514   509   510   513     9 
  507   509   514   515     9 
  507   509   514   516     9 
  510   509   514   515     9 
  510   509   514   516     9 
  509   514   516   517     9 
  509   514   516   518     9 
  515   514   516   517     9 
  515   514   516   518     9 
  514   516   518   506     9 
  514   516   518   519     9 
  517   516   518   506     9 
  517   516   518   519     9 
  501   520   522   504     9 
  501   520   522   523     9 
  501   520   522   524     9 
  521   520   522   504     9 
  521   520   522   523     9 
  521   520   522   524     9 
  525   520   522   504     9 
  525   520   522   523     9 
  525   520   522   524     9 
  501   520   525   526     9 
  521   520   525   526     9 
  522   520   525   526     9 
  520   525   526   527     9 
  520   525   526   528     9 
  520   525   526   529     9 
  525   526   529   530     9 
  527   526   529   530     9 
  528   526   529   530     9 
  526   529   530   531     9 
  526   529   530   532     9 
  526   529   530   533     9 
  529   530   533   534     9 
  529   530   533   535     9 
  529   530   533   550     9 
  531   530   533   534     9 
  531   530   533   535     9 
  531   530   533   550     9 
  532   530   533   534     9 
  532   530   533   535     9 
  532   530   533   550     9 
  530   533   535   536     9 
  534   533   535   536     9 
  550   533   535   536     9 
  530   533   550   551     9 
  530   533   550   552     9 
  530   533   550   555     9 
  534   533   550   551     9 
  534   533   550   552     9 
  534   533   550   555     9 
  535   533   550   551     9 
  535   533   550   552     9 
  535   533   550   555     9 
  533   535   536   537     9 
  533   535   536   538     9 
  533   535   536   552     9 
  535   536   538   539     9 
  535   536   538   548     9 
  537   536   538   539     9 
  537   536   538   548     9 
  552   536   538   539     9 
  552   536   538   548     9 
  535   536   552   550     9 
  535   536   552   553     9 
  535   536   552   554     9 
  537   536   552   550     9 
  537   536   552   553     9 
  537   536   552   554     9 
  538   536   552   550     9 
  538   536   552   553     9 
  538   536   552   554     9 
  536   538   539   540     9 
  536   538   539   541     9 
  548   538   539   540     9 
  548   538   539   541     9 
  536   538   548   547     9 
  536   538   548   549     9 
  539   538   548   547     9 
  539   538   548   549     9 
  538   539   541   542     9 
  538   539   541   543     9 
  540   539   541   542     9 
  540   539   541   543     9 
  539   541   543   544     9 
  539   541   543   547     9 
  542   541   543   544     9 
  542   541   543   547     9 
  541   543   544   545     9 
  541   543   544   546     9 
  547   543   544   545     9 
  547   543   544   546     9 
  541   543   547   548     9 
  544   543   547   548     9 
  543   547   548   538     9 
  543   547   548   549     9 
  533   550   552   536     9 
  533   550   552   553     9 
  533   550   552   554     9 
  551   550   552   536     9 
  551   550   552   553     9 
  551   550   552   554     9 
  555   550   552   536     9 
  555   550   552   553     9 
  555   550   552   554     9 
  533   550   555   556     9 
  551   550   555   556     9 
  552   550   555   556     9 
  550   555   556   557     9 
  550   555   556   558     9 
  550   555   556   559     9 
  555   556   559   560     9 
  557   556   559   560     9 
  558   556   559   560     9 
  556   559   560   561     9 
  556   559   560   562     9 
  556   559   560   563     9 
  559   560   563   564     9 
  559   560   563   565     9 
  559   560   563   583     9 
  561   560   563   564     9 
  561   560   563   565     9 
  561   560   563   583     9 
  562   560   563   564     9 
  562   560   563   565     9 
  562   560   563   583     9 
  560   563   565   566     9 
  564   563   565   566     9 
  583   563   565   566     9 
  560   563   583   584     9 
  560   563   583   585     9 
  560   563   583   588     9 
  564   563   583   584     9 
  564   563   583   585     9 
  564   563   583   588     9 
  565   563   583   584     9 
  565   563   583   585     9 
  565   563   583   588     9 
  563   565   566   567     9 
  563   565   566   568     9 
  563   565   566   585     9 
  565   566   568   569     9 
  565   566   568   582     9 
  567   566   568   569     9 
  567   566   568   582     9 
  585   566   568   569     9 
  585   566   568   582     9 
  565   566   585   583     9 
  565   566   585   586     9 
  565   566   585   587     9 
  567   566   585   583     9 
  567   566   585   586     9 
  567   566   585   587     9 
  568   566   585   583     9 
  568   566   585   586     9 
  568   566   585   587     9 
  566   568   569   570     9 
  566   568   569   571     9 
  582   568   569   570     9 
  582   568   569   571     9 
  566   568   582   572     9 
  566   568   582   581     9 
  569   568   582   572     9 
  569   568   582   581     9 
  568   569   571   572     9 
  570   569   571   572     9 
  569   571   572   573     9 
  569   571   572   582     9 
  571   572   573   574     9 
  571   572   573   575     9 
  582   572   573   574     9 
  582   572   573   575     9 
  571   572   582   568     9 
  571   572   582   581     9 
  573   572   582   568     9 
  573   572   582   581     9 
  572   573   575   576     9 
  572   573   575   577     9 
  574   573   575   576     9 
  574   573   575   577     9 
  573   575   577   578     9 
  573   575   577   581     9 
  576   575   577   578     9 
  576   575   577   581     9 
  575   577   578   579     9 
  575   577   578   580     9 
  581   577   578   579     9 
  581   577   578   580     9 
  575   577   581   582     9 
  578   577   581   582     9 
  577   581   582   568     9 
  577   581   582   572     9 
  563   583   585   566     9 
  563   583   585   586     9 
  563   583   585   587     9 
  584   583   585   566     9 
  584   583   585   586     9 
  584   583   585   587     9 
  588   583   585   566     9 
  588   583   585   586     9 
  588   583   585   587     9 
  563   583   588   589     9 
  584   583   588   589     9 
  585   583   588   589     9 
  583   588   589   590     9 
  583   588   589   591     9 
  583   588   589   592     9 
  588   589   592   593     9 
  590   589   592   593     9 
  591   589   592   593     9 
  589   592   593   594     9 
  589   592   593   595     9 
  589   592   593   596     9 
  592   593   596   597     9 
  592   593   596   598     9 
  592   593   596   616     9 
  594   593   596   597     9 
  594   593   596   598     9 
  594   593   596   616     9 
  595   593   596   597     9 
  595   593   596   598     9 
  595   593   596   616     9 
  593   596   598   599     9 
  597   596   598   599     9 
  616   596   598   599     9 
  593   596   616   617     9 
  593   596   616   618     9 
  593   596   616   621     9 
  597   596   616   617     9 
  597   596   616   618     9 
  597   596   616   621     9 
  598   596   616   617     9 
  598   596   616   618     9 
  598   596   616   621     9 
  596   598   599   600     9 
  596   598   599   601     9 
  596   598   599   618     9 
  598   599   601   602     9 
  598   599   601   615     9 
  600   599   601   602     9 
  600   599   601   615     9 
  618   599   601   602     9 
  618   599   601   615     9 
  598   599   618   616     9 
  598   599   618   619     9 
  598   599   618   620     9 
  600   599   618   616     9 
  600   599   618   619     9 
  600   599   618   620     9 
  601   599   618   616     9 
  601   599   618   619     9 
  601   599   618   620     9 
  599   601   602   603     9 
  599   601   602   604     9 
  615   601   602   603     9 
  615   601   602   604     9 
  599   601   615   605     9 
  599   601   615   614     9 
  602   601   615   605     9 
  602   601   615   614     9 
  601   602   604   605     9 
  603   602   604   605     9 
  602   604   605   606     9 
  602   604   605   615     9 
  604   605   606   607     9 
  604   605   606   608     9 
  615   605   606   607     9 
  615   605   606   608     9 
  604   605   615   601     9 
  604   605   615   614     9 
  606   605   615   601     9 
  606   605   615   614     9 
  605   606   608   609     9 
  605   606   608   610     9 
  607   606   608   609     9 
  607   606   608   610     9 
  606   608   610   611     9 
  606   608   610   614     9 
  609   608   610   611     9 
  609   608   610   614     9 
  608   610   611   612     9 
  608   610   611   613     9 
  614   610   611   612     9 
  614   610   611   613     9 
  608   610   614   615     9 
  611   610   614   615     9 
  610   614   615   601     9 
  610   614   615   605     9 
  596   616   618   599     9 
  596   616   618   619     9 
  596   616   618   620     9 
  617   616   618   599     9 
  617   616   618   619     9 
  617   616   618   620     9 
  621   616   618   599     9 
  621   616   618   619     9 
  621   616   618   620     9 
  596   616   621   622     9 
  617   616   621   622     9 
  618   616   621   622     9 
  616   621   622   623     9 
  616   621   622   624     9 
  616   621   622   625     9 
  621   622   625   626     9 
  623   622   625   626     9 
  624   622   625   626     9 
  622   625   626   627     9 
  622   625   626   628     9 
  622   625   626   629     9 
  625   626   629   630     9 
  625   626   629   631     9 
  625   626   629   648     9 
  627   626   629   630     9 
  627   626   629   631     9 
  627   626   629   648     9 
  628   626   629   630     9 
  628   626   629   631     9 
  628   626   629   648     9 
  626   629   631   632     9 
  630   629   631   632     9 
  648   629   631   632     9 
  626   629   648   649     9 
  626   629   648   650     9 
  626   629   648   653     9 
  630   629   648   649     9 
  630   629   648   650     9 
  630   629   648   653     9 
  631   629   648   649     9 
  631   629   648   650     9 
  631   629   648   653     9 
  629   631   632   633     9 
  629   631   632   634     9 
  629   631   632   650     9 
  631   632   634   635     9 
  631   632   634   647     9 
  633   632   634   635     9 
  633   632   634   647     9 
  650   632   634   635     9 
  650   632   634   647     9 
  631   632   650   648     9 
  631   632   650   651     9 
  631   632   650   652     9 
  633   632   650   648     9 
  633   632   650   651     9 
  633   632   650   652     9 
  634   632   650   648     9 
  634   632   650   651     9 
  634   632   650   652     9 
  632   634   635   636     9 
  632   634   635   637     9 
  647   634   635   636     9 
  647   634   635   637     9 
  632   634   647   638     9 
  632   634   647   646     9 
  635   634   647   638     9 
  635   634   647   646     9 
  634   635   637   638     9 
  636   635   637   638     9 
  635   637   638   639     9 
  635   637   638   647     9 
  637   638   639   640     9 
  637   638   639   643     9 
  647   638   639   640     9 
  647   638   639   643     9 
  637   638   647   634     9 
  637   638   647   646     9 
  639   638   647   634     9 
  639   638   647   646     9 
  638   639   640   641     9 
  638   639   640   642     9 
  643   639   640   641     9 
  643   639   640   642     9 
  638   639   643   644     9 
  640   639   643   644     9 
  639   643   644   645     9 
  639   643   644   646     9 
  643   644   646   647     9 
  645   644   646   647     9 
  644   646   647   634     9 
  644   646   647   638     9 
  629   648   650   632     9 
  629   648   650   651     9 
  629   648   650   652     9 
  649   648   650   632     9 
  649   648   650   651     9 
  649   648   650   652     9 
  653   648   650   632     9 
  653   648   650   651     9 
  653   648   650   652     9 
  629   648   653   654     9 
  649   648   653   654     9 
  650   648   653   654     9 
  648   653   654   655     9 
  648   653   654   656     9 
  648   653   654   657     9 
  653   654   657   658     9 
  655   654   657   658     9 
  656   654   657   658     9 
  654   657   658   659     9 
  654   657   658   660     9 
  654   657   658   661     9 
  657   658   661   662     9 
  657   658   661   663     9 
  657   658   661   678     9 
  659   658   661   662     9 
  659   658   661   663     9 
  659   658   661   678     9 
  660   658   661   662     9 
  660   658   661   663     9 
  660   658   661   678     9 
  658   661   663   664     9 
  662   661   663   664     9 
  678   661   663   664     9 
  658   661   678   679     9 
  658   661   678   680     9 
  658   661   678   683     9 
  662   661   678   679     9 
  662   661   678   680     9 
  662   661   678   683     9 
  663   661   678   679     9 
  663   661   678   680     9 
  663   661   678   683     9 
  661   663   664   665     9 
  661   663   664   666     9 
  661   663   664   680     9 
  663   664   666   667     9 
  663   664   666   676     9 
  665   664   666   667     9 
  665   664   666   676     9 
  680   664   666   667     9 
  680   664   666   676     9 
  663   664   680   678     9 
  663   664   680   681     9 
  663   664   680   682     9 
  665   664   680   678     9 
  665   664   680   681     9 
  665   664   680   682     9 
  666   664   680   678     9 
  666   664   680   681     9 
  666   664   680   682     9 
  664   666   667   668     9 
  664   666   667   669     9 
  676   666   667   668     9 
  676   666   667   669     9 
  664   666   676   675     9 
  664   666   676   677     9 
  667   666   676   675     9 
  667   666   676   677     9 
  666   667   669   670     9 
  666   667   669   671     9 
  668   667   669   670     9 
  668   667   669   671     9 
  667   669   671   672     9 
  667   669   671   675     9 
  670   669   671   672     9 
  670   669   671   675     9 
  669   671   672   673     9 
  669   671   672   674     9 
  675   671   672   673     9 
  675   671   672   674     9 
  669   671   675   676     9 
  672   671   675   676     9 
  671   675   676   666     9 
  671   675   676   677     9 
  661   678   680   664     9 
  661   678   680   681     9 
  661   678   680   682     9 
  679   678   680   664     9 
  679   678   680   681     9 
  679   678   680   682     9 
  683   678   680   664     9 
  683   678   680   681     9 
  683   678   680   682     9 
  661   678   683   684     9 
  679   678   683   684     9 
  680   678   683   684     9 
  678   683   684   685     9 
  678   683   684   686     9 
  678   683   684   687     9 
  683   684   687   688     9 
  685   684   687   688     9 
  686   684   687   688     9 
  684   687   688   689     9 
  684   687   688   690     9 
  684   687   688   691     9 
  687   688   691   692     9 
  687   688   691   693     9 
  687   688   691   710     9 
  689   688   691   692     9 
  689   688   691   693     9 
  689   688   691   710     9 
  690   688   691   692     9 
  690   688   691   693     9 
  690   688   691   710     9 
  688   691   693   694     9 
  692   691   693   694     9 
  710   691   693   694     9 
  688   691   710   711     9 
  688   691   710   712     9 
  688   691   710   715     9 
  692   691   710   711     9 
  692   691   710   712     9 
  692   691   710   715     9 
  693   691   710   711     9 
  693   691   710   712     9 
  693   691   710   715     9 
  691   693   694   695     9 
  691   693   694   696     9 
  691   693   694   712     9 
  693   694   696   697     9 
  693   694   696   708     9 
  695   694   696   697     9 
  695   694   696   708     9 
  712   694   696   697     9 
  712   694   696   708     9 
  693   694   712   710     9 
  693   694   712   713     9 
  693   694   712   714     9 
  695   694   712   710     9 
  695   694   712   713     9 
  695   694   712   714     9 
  696   694   712   710     9 
  696   694   712   713     9 
  696   694   712   714     9 
  694   696   697   698     9 
  694   696   697   699     9 
  708   696   697   698     9 
  708   696   697   699     9 
  694   696   708   706     9 
  694   696   708   709     9 
  697   696   708   706     9 
  697   696   708   709     9 
  696   697   699   700     9 
  696   697   699   704     9 
  698   697   699   700     9 
  698   697   699   704     9 
  697   699   700   701     9 
  697   699   700   702     9 
  697   699   700   703     9 
  704   699   700   701     9 
  704   699   700   702     9 
  704   699   700   703     9 
  697   699   704   705     9 
  697   699   704   706     9 
  700   699   704   705     9 
  700   699   704   706     9 
  699   704   706   707     9 
  699   704   706   708     9 
  705   704   706   707     9 
  705   704   706   708     9 
  704   706   708   696     9 
  704   706   708   709     9 
  707   706   708   696     9 
  707   706   708   709     9 
  691   710   712   694     9 
  691   710   712   713     9 
  691   710   712   714     9 
  711   710   712   694     9 
  711   710   712   713     9 
  711   710   712   714     9 
  715   710   712   694     9 
  715   710   712   713     9 
  715   710   712   714     9 
  691   710   715   716     9 
  711   710   715   716     9 
  712   710   715   716     9 
  710   715   716   717     9 
  710   715   716   718     9 
  710   715   716   719     9 
  715   716   719   720     9 
  717   716   719   720     9 
  718   716   719   720     9 
  716   719   720   721     9 
  716   719   720   722     9 
  716   719   720   723     9 
  719   720   723   724     9 
  719   720   723   725     9 
  719   720   723   743     9 
  721   720   723   724     9 
  721   720   723   725     9 
  721   720   723   743     9 
  722   720   723   724     9 
  722   720   723   725     9 
  722   720   723   743     9 
  720   723   725   726     9 
  724   723   725   726     9 
  743   723   725   726     9 
  720   723   743   744     9 
  720   723   743   745     9 
  720   723   743   748     9 
  724   723   743   744     9 
  724   723   743   745     9 
  724   723   743   748     9 
  725   723   743   744     9 
  725   723   743   745     9 
  725   723   743   748     9 
  723   725   726   727     9 
  723   725   726   728     9 
  723   725   726   745     9 
  725   726   728   729     9 
  725   726   728   742     9 
  727   726   728   729     9 
  727   726   728   742     9 
  745   726   728   729     9 
  745   726   728   742     9 
  725   726   745   743     9 
  725   726   745   746     9 
  725   726   745   747     9 
  727   726   745   743     9 
  727   726   745   746     9 
  727   726   745   747     9 
  728   726   745   743     9 
  728   726   745   746     9 
  728   726   745   747     9 
  726   728   729   730     9 
  726   728   729   731     9 
  742   728   729   730     9 
  742   728   729   731     9 
  726   728   742   732     9 
  726   728   742   741     9 
  729   728   742   732     9 
  729   728   742   741     9 
  728   729   731   732     9 
  730   729   731   732     9 
  729   731   732   733     9 
  729   731   732   742     9 
  731   732   733   734     9 
  731   732   733   735     9 
  742   732   733   734     9 
  742   732   733   735     9 
  731   732   742   728     9 
  731   732   742   741     9 
  733   732   742   728     9 
  733   732   742   741     9 
  732   733   735   736     9 
  732   733   735   737     9 
  734   733   735   736     9 
  734   733   735   737     9 
  733   735   737   738     9 
  733   735   737   741     9 
  736   735   737   738     9 
  736   735   737   741     9 
  735   737   738   739     9 
  735   737   738   740     9 
  741   737   738   739     9 
  741   737   738   740     9 
  735   737   741   742     9 
  738   737   741   742     9 
  737   741   742   728     9 
  737   741   742   732     9 
  723   743   745   726     9 
  723   743   745   746     9 
  723   743   745   747     9 
  744   743   745   726     9 
  744   743   745   746     9 
  744   743   745   747     9 
  748   743   745   726     9 
  748   743   745   746     9 
  748   743   745   747     9 
  723   743   748   749     9 
  744   743   748   749     9 
  745   743   748   749     9 
  743   748   749   750     9 
  743   748   749   751     9 
  743   748   749   752     9 
  748   749   752   753     9 
  750   749   752   753     9 
  751   749   752   753     9 
  749   752   753   754     9 
  749   752   753   755     9 
  749   752   753   756     9 
  752   753   756   757     9 
  752   753   756   758     9 
  752   753   756   776     9 
  754   753   756   757     9 
  754   753   756   758     9 
  754   753   756   776     9 
  755   753   756   757     9 
  755   753   756   758     9 
  755   753   756   776     9 
  753   756   758   759     9 
  757   756   758   759     9 
  776   756   758   759     9 
  753   756   776   777     9 
  753   756   776   778     9 
  753   756   776   781     9 
  757   756   776   777     9 
  757   756   776   778     9 
  757   756   776   781     9 
  758   756   776   777     9 
  758   756   776   778     9 
  758   756   776   781     9 
  756   758   759   760     9 
  756   758   759   761     9 
  756   758   759   778     9 
  758   759   761   762     9 
  758   759   761   775     9 
  760   759   761   762     9 
  760   759   761   775     9 
  778   759   761   762     9 
  778   759   761   775     9 
  758   759   778   776     9 
  758   759   778   779     9 
  758   759   778   780     9 
  760   759   778   776     9 
  760   759   778   779     9 
  760   759   778   780     9 
  761   759   778   776     9 
  761   759   778   779     9 
  761   759   778   780     9 
  759   761   762   763     9 
  759   761   762   764     9 
  775   761   762   763     9 
  775   761   762   764     9 
  759   761   775   765     9 
  759   761   775   774     9 
  762   761   775   765     9 
  762   761   775   774     9 
  761   762   764   765     9 
  763   762   764   765     9 
  762   764   765   766     9 
  762   764   765   775     9 
  764   765   766   767     9 
  764   765   766   768     9 
  775   765   766   767     9 
  775   765   766   768     9 
  764   765   775   761     9 
  764   765   775   774     9 
  766   765   775   761     9 
  766   765   775   774     9 
  765   766   768   769     9 
  765   766   768   770     9 
  767   766   768   769     9 
  767   766   768   770     9 
  766   768   770   771     9 
  766   768   770   774     9 
  769   768   770   771     9 
  769   768   770   774     9 
  768   770   771   772     9 
  768   770   771   773     9 
  774   770   771   772     9 
  774   770   771   773     9 
  768   770   774   775     9 
  771   770   774   775     9 
  770   774   775   761     9 
  770   774   775   765     9 
  756   776   778   759     9 
  756   776   778   779     9 
  756   776   778   780     9 
  777   776   778   759     9 
  777   776   778   779     9 
  777   776   778   780     9 
  781   776   778   759     9 
  781   776   778   779     9 
  781   776   778   780     9 
  756   776   781   782     9 
  777   776   781   782     9 
  778   776   781   782     9 
  776   781   782   783     9 
  776   781   782   784     9 
  776   781   782   785     9 
  781   782   785   786     9 
  783   782   785   786     9 
  784   782   785   786     9 
  782   785   786   787     9 
  782   785   786   788     9 
  782   785   786   789     9 
  785   786   789   790     9 
  785   786   789   791     9 
  785   786   789   809     9 
  787   786   789   790     9 
  787   786   789   791     9 
  787   786   789   809     9 
  788   786   789   790     9 
  788   786   789   791     9 
  788   786   789   809     9 
  786   789   791   792     9 
  790   789   791   792     9 
  809   789   791   792     9 
  786   789   809   810     9 
  786   789   809   811     9 
  786   789   809   814     9 
  790   789   809   810     9 
  790   789   809   811     9 
  790   789   809   814     9 
  791   789   809   810     9 
  791   789   809   811     9 
  791   789   809   814     9 
  789   791   792   793     9 
  789   791   792   794     9 
  789   791   792   811     9 
  791   792   794   795     9 
  791   792   794   808     9 
  793   792   794   795     9 
  793   792   794   808     9 
  811   792   794   795     9 
  811   792   794   808     9 
  791   792   811   809     9 
  791   792   811   812     9 
  791   792   811   813     9 
  793   792   811   809     9 
  793   792   811   812     9 
  793   792   811   813     9 
  794   792   811   809     9 
  794   792   811   812     9 
  794   792   811   813     9 
  792   794   795   796     9 
  792   794   795   797     9 
  808   794   795   796     9 
  808   794   795   797     9 
  792   794   808   798     9 
  792   794   808   807     9 
  795   794   808   798     9 
  795   794   808   807     9 
  794   795   797   798     9 
  796   795   797   798     9 
  795   797   798   799     9 
  795   797   798   808     9 
  797   798   799   800     9 
  797   798   799   801     9 
  808   798   799   800     9 
  808   798   799   801     9 
  797   798   808   794     9 
  797   798   808   807     9 
  799   798   808   794     9 
  799   798   808   807     9 
  798   799   801   802     9 
  798   799   801   803     9 
  800   799   801   802     9 
  800   799   801   803     9 
  799   801   803   804     9 
  799   801   803   807     9 
  802   801   803   804     9 
  802   801   803   807     9 
  801   803   804   805     9 
  801   803   804   806     9 
  807   803   804   805     9 
  807   803   804   806     9 
  801   803   807   808     9 
  804   803   807   808     9 
  803   807   808   794     9 
  803   807   808   798     9 
  789   809   811   792     9 
  789   809   811   812     9 
  789   809   811   813     9 
  810   809   811   792     9 
  810   809   811   812     9 
  810   809   811   813     9 
  814   809   811   792     9 
  814   809   811   812     9 
  814   809   811   813     9 
  789   809   814   815     9 
  810   809   814   815     9 
  811   809   814   815     9 
  809   814   815   816     9 
  809   814   815   817     9 
  809   814   815   818     9 
  814   815   818   819     9 
  816   815   818   819     9 
  817   815   818   819     9 
  815   818   819   820     9 
  815   818   819   821     9 
  815   818   819   822     9 
  818   819   822   823     9 
  818   819   822   824     9 
  818   819   822   841     9 
  820   819   822   823     9 
  820   819   822   824     9 
  820   819   822   841     9 
  821   819   822   823     9 
  821   819   822   824     9 
  821   819   822   841     9 
  819   822   824   825     9 
  823   822   824   825     9 
  841   822   824   825     9 
  819   822   841   842     9 
  819   822   841   843     9 
  819   822   841   846     9 
  823   822   841   842     9 
  823   822   841   843     9 
  823   822   841   846     9 
  824   822   841   842     9 
  824   822   841   843     9 
  824   822   841   846     9 
  822   824   825   826     9 
  822   824   825   827     9 
  822   824   825   843     9 
  824   825   827   828     9 
  824   825   827   840     9 
  826   825   827   828     9 
  826   825   827   840     9 
  843   825   827   828     9 
  843   825   827   840     9 
  824   825   843   841     9 
  824   825   843   844     9 
  824   825   843   845     9 
  826   825   843   841     9 
  826   825   843   844     9 
  826   825   843   845     9 
  827   825   843   841     9 
  827   825   843   844     9 
  827   825   843   845     9 
  825   827   828   829     9 
  825   827   828   830     9 
  840   827   828   829     9 
  840   827   828   830     9 
  825   827   840   831     9 
  825   827   840   839     9 
  828   827   840   831     9 
  828   827   840   839     9 
  827   828   830   831     9 
  829   828   830   831     9 
  828   830   831   832     9 
  828   830   831   840     9 
  830   831   832   833     9 
  830   831   832   836     9 
  840   831   832   833     9 
  840   831   832   836     9 
  830   831   840   827     9 
  830   831   840   839     9 
  832   831   840   827     9 
  832   831   840   839     9 
  831   832   833   834     9 
  831   832   833   835     9 
  836   832   833   834     9 
  836   832   833   835     9 
  831   832   836   837     9 
  833   832   836   837     9 
  832   836   837   838     9 
  832   836   837   839     9 
  836   837   839   840     9 
  838   837   839   840     9 
  837   839   840   827     9 
  837   839   840   831     9 
  822   841   843   825     9 
  822   841   843   844     9 
  822   841   843   845     9 
  842   841   843   825     9 
  842   841   843   844     9 
  842   841   843   845     9 
  846   841   843   825     9 
  846   841   843   844     9 
  846   841   843   845     9 
  822   841   846   847     9 
  842   841   846   847     9 
  843   841   846   847     9 
  841   846   847   848     9 
  841   846   847   849     9 
  841   846   847   850     9 
  846   847   850   851     9 
  848   847   850   851     9 
  849   847   850   851     9 
  847   850   851   852     9 
  847   850   851   853     9 
  847   850   851   854     9 
  850   851   854   855     9 
  850   851   854   856     9 
  850   851   854   874     9 
  852   851   854   855     9 
  852   851   854   856     9 
  852   851   854   874     9 
  853   851   854   855     9 
  853   851   854   856     9 
  853   851   854   874     9 
  851   854   856   857     9 
  855   854   856   857     9 
  874   854   856   857     9 
  851   854   874   875     9 
  851   854   874   876     9 
  851   854   874   879     9 
  855   854   874   875     9 
  855   854   874   876     9 
  855   854   874   879     9 
  856   854   874   875     9 
  856   854   874   876     9 
  856   854   874   879     9 
  854   856   857   858     9 
  854   856   857   859     9 
  854   856   857   876     9 
  856   857   859   860     9 
  856   857   859   873     9 
  858   857   859   860     9 
  858   857   859   873     9 
  876   857   859   860     9 
  876   857   859   873     9 
  856   857   876   874     9 
  856   857   876   877     9 
  856   857   876   878     9 
  858   857   876   874     9 
  858   857   876   877     9 
  858   857   876   878     9 
  859   857   876   874     9 
  859   857   876   877     9 
  859   857   876   878     9 
  857   859   860   861     9 
  857   859   860   862     9 
  873   859   860   861     9 
  873   859   860   862     9 
  857   859   873   863     9 
  857   859   873   872     9 
  860   859   873   863     9 
  860   859   873   872     9 
  859   860   862   863     9 
  861   860   862   863     9 
  860   862   863   864     9 
  860   862   863   873     9 
  862   863   864   865     9 
  862   863   864   866     9 
  873   863   864   865     9 
  873   863   864   866     9 
  862   863   873   859     9 
  862   863   873   872     9 
  864   863   873   859     9 
  864   863   873   872     9 
  863   864   866   867     9 
  863   864   866   868     9 
  865   864   866   867     9 
  865   864   866   868     9 
  864   866   868   869     9 
  864   866   868   872     9 
  867   866   868   869     9 
  867   866   868   872     9 
  866   868   869   870     9 
  866   868   869   871     9 
  872   868   869   870     9 
  872   868   869   871     9 
  866   868   872   873     9 
  869   868   872   873     9 
  868   872   873   859     9 
  868   872   873   863     9 
  854   874   876   857     9 
  854   874   876   877     9 
  854   874   876   878     9 
  875   874   876   857     9 
  875   874   876   877     9 
  875   874   876   878     9 
  879   874   876   857     9 
  879   874   876   877     9 
  879   874   876   878     9 
  854   874   879   880     9 
  875   874   879   880     9 
  876   874   879   880     9 
  874   879   880   881     9 
  874   879   880   882     9 
  874   879   880   883     9 
  879   880   883   884     9 
  881   880   883   884     9 
  882   880   883   884     9 
  880   883   884   885     9 
  880   883   884   886     9 
  880   883   884   887     9 
  883   884   887   888     9 
  883   884   887   889     9 
  883   884   887   904     9 
  885   884   887   888     9 
  885   884   887   889     9 
  885   884   887   904     9 
  886   884   887   888     9 
  886   884   887   889     9 
  886   884   887   904     9 
  884   887   889   890     9 
  888   887   889   890     9 
  904   887   889   890     9 
  884   887   904   905     9 
  884   887   904   906     9 
  884   887   904   909     9 
  888   887   904   905     9 
  888   887   904   906     9 
  888   887   904   909     9 
  889   887   904   905     9 
  889   887   904   906     9 
  889   887   904   909     9 
  887   889   890   891     9 
  887   889   890   892     9 
  887   889   890   906     9 
  889   890   892   893     9 
  889   890   892   902     9 
  891   890   892   893     9 
  891   890   892   902     9 
  906   890   892   893     9 
  906   890   892   902     9 
  889   890   906   904     9 
  889   890   906   907     9 
  889   890   906   908     9 
  891   890   906   904     9 
  891   890   906   907     9 
  891   890   906   908     9 
  892   890   906   904     9 
  892   890   906   907     9 
  892   890   906   908     9 
  890   892   893   894     9 
  890   892   893   895     9 
  902   892   893   894     9 
  902   892   893   895     9 
  890   892   902   901     9 
  890   892   902   903     9 
  893   892   902   901     9 
  893   892   902   903     9 
  892   893   895   896     9 
  892   893   895   897     9 
  894   893   895   896     9 
  894   893   895   897     9 
  893   895   897   898     9 
  893   895   897   901     9 
  896   895   897   898     9 
  896   895   897   901     9 
  895   897   898   899     9 
  895   897   898   900     9 
  901   897   898   899     9 
  901   897   898   900     9 
  895   897   901   902     9 
  898   897   901   902     9 
  897   901   902   892     9 
  897   901   902   903     9 
  887   904   906   890     9 
  887   904   906   907     9 
  887   904   906   908     9 
  905   904   906   890     9 
  905   904   906   907     9 
  905   904   906   908     9 
  909   904   906   890     9 
  909   904   906   907     9 
  909   904   906   908     9 
  887   904   909   910     9 
  905   904   909   910     9 
  906   904   909   910     9 
  904   909   910   911     9 
  904   909   910   912     9 
  904   909   910   913     9 
  909   910   913   914     9 
  911   910   913   914     9 
  912   910   913   914     9 
  910   913   914   915     9 
  910   913   914   916     9 
  910   913   914   917     9 
  913   914   917   918     9 
  913   914   917   919     9 
  913   914   917   937     9 
  915   914   917   918     9 
  915   914   917   919     9 
  915   914   917   937     9 
  916   914   917   918     9 
  916   914   917   919     9 
  916   914   917   937     9 
  914   917   919   920     9 
  918   917   919   920     9 
  937   917   919   920     9 
  914   917   937   938     9 
  914   917   937   939     9 
  914   917   937   942     9 
  918   917   937   938     9 
  918   917   937   939     9 
  918   917   937   942     9 
  919   917   937   938     9 
  919   917   937   939     9 
  919   917   937   942     9 
  917   919   920   921     9 
  917   919   920   922     9 
  917   919   920   939     9 
  919   920   922   923     9 
  919   920   922   936     9 
  921   920   922   923     9 
  921   920   922   936     9 
  939   920   922   923     9 
  939   920   922   936     9 
  919   920   939   937     9 
  919   920   939   940     9 
  919   920   939   941     9 
  921   920   939   937     9 
  921   920   939   940     9 
  921   920   939   941     9 
  922   920   939   937     9 
  922   920   939   940     9 
  922   920   939   941     9 
  920   922   923   924     9 
  920   922   923   925     9 
  936   922   923   924     9 
  936   922   923   925     9 
  920   922   936   926     9 
  920   922   936   935     9 
  923   922   936   926     9 
  923   922   936   935     9 
  922   923   925   926     9 
  924   923   925   926     9 
  923   925   926   927     9 
  923   925   926   936     9 
  925   926   927   928     9 
  925   926   927   929     9 
  936   926   927   928     9 
  936   926   927   929     9 
  925   926   936   922     9 
  925   926   936   935     9 
  927   926   936   922     9 
  927   926   936   935     9 
  926   927   929   930     9 
  926   927   929   931     9 
  928   927   929   930     9 
  928   927   929   931     9 
  927   929   931   932     9 
  927   929   931   935     9 
  930   929   931   932     9 
  930   929   931   935     9 
  929   931   932   933     9 
  929   931   932   934     9 
  935   931   932   933     9 
  935   931   932   934     9 
  929   931   935   936     9 
  932   931   935   936     9 
  931   935   936   922     9 
  931   935   936   926     9 
  917   937   939   920     9 
  917   937   939   940     9 
  917   937   939   941     9 
  938   937   939   920     9 
  938   937   939   940     9 
  938   937   939   941     9 
  942   937   939   920     9 
  942   937   939   940     9 
  942   937   939   941     9 
  917   937   942   943     9 
  938   937   942   943     9 
  939   937   942   943     9 
  937   942   943   944     9 
  937   942   943   945     9 
  937   942   943   946     9 
  942   943   946   947     9 
  944   943   946   947     9 
  945   943   946   947     9 
  943   946   947   948     9 
  943   946   947   949     9 
  943   946   947   950     9 
  946   947   950   951     9 
  946   947   950   952     9 
  946   947   950   969     9 
  948   947   950   951     9 
  948   947   950   952     9 
  948   947   950   969     9 
  949   947   950   951     9 
  949   947   950   952     9 
  949   947   950   969     9 
  947   950   952   953     9 
  951   950   952   953     9 
  969   950   952   953     9 
  947   950   969   970     9 
  947   950   969   971     9 
  947   950   969   974     9 
  951   950   969   970     9 
  951   950   969   971     9 
  951   950   969   974     9 
  952   950   969   970     9 
  952   950   969   971     9 
  952   950   969   974     9 
  950   952   953   954     9 
  950   952   953   955     9 
  950   952   953   971     9 
  952   953   955   956     9 
  952   953   955   968     9 
  954   953   955   956     9 
  954   953   955   968     9 
  971   953   955   956     9 
  971   953   955   968     9 
  952   953   971   969     9 
  952   953   971   972     9 
  952   953   971   973     9 
  954   953   971   969     9 
  954   953   971   972     9 
  954   953   971   973     9 
  955   953   971   969     9 
  955   953   971   972     9 
  955   953   971   973     9 
  953   955   956   957     9 
  953   955   956   958     9 
  968   955   956   957     9 
  968   955   956   958     9 
  953   955   968   959     9 
  953   955   968   967     9 
  956   955   968   959     9 
  956   955   968   967     9 
  955   956   958   959     9 
  957   956   958   959     9 
  956   958   959   960     9 
  956   958   959   968     9 
  958   959   960   961     9 
  958   959   960   964     9 
  968   959   960   961     9 
  968   959   960   964     9 
  958   959   968   955     9 
  958   959   968   967     9 
  960   959   968   955     9 
  960   959   968   967     9 
  959   960   961   962     9 
  959   960   961   963     9 
  964   960   961   962     9 
  964   960   961   963     9 
  959   960   964   965     9 
  961   960   964   965     9 
  960   964   965   966     9 
  960   964   965   967     9 
  964   965   967   968     9 
  966   965   967   968     9 
  965   967   968   955     9 
  965   967   968   959     9 
  950   969   971   953     9 
  950   969   971   972     9 
  950   969   971   973     9 
  970   969   971   953     9 
  970   969   971   972     9 
  970   969   971   973     9 
  974   969   971   953     9 
  974   969   971   972     9 
  974   969   971   973     9 
  950   969   974   975     9 
  970   969   974   975     9 
  971   969   974   975     9 
  969   974   975   976     9 
  969   974   975   977     9 
  969   974   975   978     9 
  974   975   978   979     9 
  976   975   978   979     9 
  977   975   978   979     9 
  975   978   979   980     9 
  975   978   979   981     9 
  975   978   979   982     9 
  978   979   982   983     9 
  978   979   982   984     9 
  978   979   982  1002     9 
  980   979   982   983     9 
  980   979   982   984     9 
  980   979   982  1002     9 
  981   979   982   983     9 
  981   979   982   984     9 
  981   979   982  1002     9 
  979   982   984   985     9 
  983   982   984   985     9 
 1002   982   984   985     9 
  979   982  1002  1003     9 
  979   982  1002  1004     9 
  979   982  1002  1007     9 
  983   982  1002  1003     9 
  983   982  1002  1004     9 
  983   982  1002  1007     9 
  984   982  1002  1003     9 
  984   982  1002  1004     9 
  984   982  1002  1007     9 
  982   984   985   986     9 
  982   984   985   987     9 
  982   984   985  1004     9 
  984   985   987   988     9 
  984   985   987  1001     9 
  986   985   987   988     9 
  986   985   987  1001     9 
 1004   985   987   988     9 
 1004   985   987  1001     9 
  984   985  1004  1002     9 
  984   985  1004  1005     9 
  984   985  1004  1006     9 
  986   985  1004  1002     9 
  986   985  1004  1005     9 
  986   985  1004  1006     9 
  987   985  1004  1002     9 
  987   985  1004  1005     9 
  987   985  1004  1006     9 
  985   987   988   989     9 
  985   987   988   990     9 
 1001   987   988   989     9 
 1001   987   988   990     9 
  985   987  1001   991     9 
  985   987  1001  1000     9 
  988   987  1001   991     9 
  988   987  1001  1000     9 
  987   988   990   991     9 
  989   988   990   991     9 
  988   990   991   992     9 
  988   990   991  1001     9 
  990   991   992   993     9 
  990   991   992   994     9 
 1001   991   992   993     9 
 1001   991   992   994     9 
  990   991  1001   987     9 
  990   991  1001  1000     9 
  992   991  1001   987     9 
  992   991  1001  1000     9 
  991   992   994   995     9 
  991   992   994   996     9 
  993   992   994   995     9 
  993   992   994   996     9 
  992   994   996   997     9 
  992   994   996  1000     9 
  995   994   996   997     9 
  995   994   996  1000     9 
  994   996   997   998     9 
  994   996   997   999     9 
 1000   996   997   998     9 
 1000   996   997   999     9 
  994   996  1000  1001     9 
  997   996  1000  1001     9 
  996  1000  1001   987     9 
  996  1000  1001   991     9 
  982  1002  1004   985     9 
  982  1002  1004  1005     9 
  982  1002  1004  1006     9 
 1003  1002  1004   985     9 
 1003  1002  1004  1005     9 
 1003  1002  1004  1006     9 
 1007  1002  1004   985     9 
 1007  1002  1004  1005     9 
 1007  1002  1004  1006     9 
  982  1002  1007  1008     9 
 1003  1002  1007  1008     9 
 1004  1002  1007  1008     9 
 1002  1007  1008  1009     9 
 1002  1007  1008  1010     9 
 1002  1007  1008  1011     9 
 1007  1008  1011  1012     9 
 1009  1008  1011  1012     9 
 1010  1008  1011  1012     9 
 1008  1011  1012  1013     9 
 1008  1011  1012  1014     9 
 1008  1011  1012  1015     9 
 1011  1012  1015  1016     9 
 1011  1012  1015  1017     9 
 1011  1012  1015  1032     9 
 1013  1012  1015  1016     9 
 1013  1012  1015  1017     9 
 1013  1012  1015  1032     9 
 1014  1012  1015  1016     9 
 1014  1012  1015  1017     9 
 1014  1012  1015  1032     9 
 1012  1015  1017  1018     9 
 1016  1015  1017  1018     9 
 1032  1015  1017  1018     9 
 1012  1015  1032  1033     9 
 1012  1015  1032  1034     9 
 1012  1015  1032  1037     9 
 1016  1015  1032  1033     9 
 1016  1015  1032  1034     9 
 1016  1015  1032  1037     9 
 1017  1015  1032  1033     9 
 1017  1015  1032  1034     9 
 1017  1015  1032  1037     9 
 1015  1017  1018  1019     9 
 1015  1017  1018  1020     9 
 1015  1017  1018  1034     9 
 1017  1018  1020  1021     9 
 1017  1018  1020  1030     9 
 1019  1018  1020  1021     9 
 1019  1018  1020  1030     9 
 1034  1018  1020  1021     9 
 1034  1018  1020  1030     9 
 1017  1018  1034  1032     9 
 1017  1018  1034  1035     9 
 1017  1018  1034  1036     9 
 1019  1018  1034  1032     9 
 1019  1018  1034  1035     9 
 1019  1018  1034  1036     9 
 1020  1018  1034  1032     9 
 1020  1018  1034  1035     9 
 1020  1018  1034  1036     9 
 1018  1020  1021  1022     9 
 1018  1020  1021  1023     9 
 1030  1020  1021  1022     9 
 1030  1020  1021  1023     9 
 1018  1020  1030  1029     9 
 1018  1020  1030  1031     9 
 1021  1020  1030  1029     9 
 1021  1020  1030  1031     9 
 1020  1021  1023  1024     9 
 1020  1021  1023  1025     9 
 1022  1021  1023  1024     9 
 1022  1021  1023  1025     9 
 1021  1023  1025  1026     9 
 1021  1023  1025  1029     9 
 1024  1023  1025  1026     9 
 1024  1023  1025  1029     9 
 1023  1025  1026  1027     9 
 1023  1025  1026  1028     9 
 1029  1025  1026  1027     9 
 1029  1025  1026  1028     9 
 1023  1025  1029  1030     9 
 1026  1025  1029  1030     9 
 1025  1029  1030  1020     9 
 1025  1029  1030  1031     9 
 1015  1032  1034  1018     9 
 1015  1032  1034  1035     9 
 1015  1032  1034  1036     9 
 1033  1032  1034  1018     9 
 1033  1032  1034  1035     9 
 1033  1032  1034  1036     9 
 1037  1032  1034  1018     9 
 1037  1032  1034  1035     9 
 1037  1032  1034  1036     9 
 1015  1032  1037  1038     9 
 1033  1032  1037  1038     9 
 1034  1032  1037  1038     9 
 1032  1037  1038  1039     9 
 1032  1037  1038  1040     9 
 1032  1037  1038  1041     9 
 1037  1038  1041  1042     9 
 1039  1038  1041  1042     9 
 1040  1038  1041  1042     9 
 1038  1041  1042  1043     9 
 1038  1041  1042  1044     9 
 1038  1041  1042  1045     9 
 1041  1042  1045  1046     9 
 1041  1042  1045  1047     9 
 1041  1042  1045  1065     9 
 1043  1042  1045  1046     9 
 1043  1042  1045  1047     9 
 1043  1042  1045  1065     9 
 1044  1042  1045  1046     9 
 1044  1042  1045  1047     9 
 1044  1042  1045  1065     9 
 1042  1045  1047  1048     9 
 1046  1045  1047  1048     9 
 1065  1045  1047  1048     9 
 1042  1045  1065  1066     9 
 1042  1045  1065  1067     9 
 1042  1045  1065  1070     9 
 1046  1045  1065  1066     9 
 1046  1045  1065  1067     9 
 1046  1045  1065  1070     9 
 1047  1045  1065  1066     9 
 1047  1045  1065  1067     9 
 1047  1045  1065  1070     9 
 1045  1047  1048  1049     9 
 1045  1047  1048  1050     9 
 1045  1047  1048  1067     9 
 1047  1048  1050  1051     9 
 1047  1048  1050  1064     9 
 1049  1048  1050  1051     9 
 1049  1048  1050  1064     9 
 1067  1048  1050  1051     9 
 1067  1048  1050  1064     9 
 1047  1048  1067  1065     9 
 1047  1048  1067  1068     9 
 1047  1048  1067  1069     9 
 1049  1048  1067  1065     9 
 1049  1048  1067  1068     9 
 1049  1048  1067  1069     9 
 1050  1048  1067  1065     9 
 1050  1048  1067  1068     9 
 1050  1048  1067  1069     9 
 1048  1050  1051  1052     9 
 1048  1050  1051  1053     9 
 1064  1050  1051  1052     9 
 1064  1050  1051  1053     9 
 1048  1050  1064  1054     9 
 1048  1050  1064  1063     9 
 1051  1050  1064  1054     9 
 1051  1050  1064  1063     9 
 1050  1051  1053  1054     9 
 1052  1051  1053  1054     9 
 1051  1053  1054  1055     9 
 1051  1053  1054  1064     9 
 1053  1054  1055  1056     9 
 1053  1054  1055  1057     9 
 1064  1054  1055  1056     9 
 1064  1054  1055  1057     9 
 1053  1054  1064  1050     9 
 1053  1054  1064  1063     9 
 1055  1054  1064  1050     9 
 1055  1054  1064  1063     9 
 1054  1055  1057  1058     9 
 1054  1055  1057  1059     9 
 1056  1055  1057  1058     9 
 1056  1055  1057  1059     9 
 1055  1057  1059  1060     9 
 1055  1057  1059  1063     9 
 1058  1057  1059  1060     9 
 1058  1057  1059  1063     9 
 1057  1059  1060  1061     9 
 1057  1059  1060  1062     9 
 1063  1059  1060  1061     9 
 1063  1059  1060  1062     9 
 1057  1059  1063  1064     9 
 1060  1059  1063  1064     9 
 1059  1063  1064  1050     9 
 1059  1063  1064  1054     9 
 1045  1065  1067  1048     9 
 1045  1065  1067  1068     9 
 1045  1065  1067  1069     9 
 1066  1065  1067  1048     9 
 1066  1065  1067  1068     9 
 1066  1065  1067  1069     9 
 1070  1065  1067  1048     9 
 1070  1065  1067  1068     9 
 1070  1065  1067  1069     9 
 1045  1065  1070  1071     9 
 1066  1065  1070  1071     9 
 1067  1065  1070  1071     9 
 1065  1070  1071  1072     9 
 1065  1070  1071  1073     9 
 1065  1070  1071  1074     9 
 1070  1071  1074  1075     9 
 1072  1071  1074  1075     9 
 1073  1071  1074  1075     9 
 1071  1074  1075  1076     9 
 1071  1074  1075  1077     9 
 1071  1074  1075  1078     9 
 1074  1075  1078  1079     9 
 1074  1075  1078  1080     9 
 1074  1075  1078  1095     9 
 1076  1075  1078  1079     9 
 1076  1075  1078  1080     9 
 1076  1075  1078  1095     9 
 1077  1075  1078  1079     9 
 1077  1075  1078  1080     9 
 1077  1075  1078  1095     9 
 1075  1078  1080  1081     9 
 1079  1078  1080  1081     9 
 1095  1078  1080  1081     9 
 1075  1078  1095  1096     9 
 1075  1078  1095  1097     9 
 1075  1078  1095  1100     9 
 1079  1078  1095  1096     9 
 1079  1078  1095  1097     9 
 1079  1078  1095  1100     9 
 1080  1078  1095  1096     9 
 1080  1078  1095  1097     9 
 1080  1078  1095  1100     9 
 1078  1080  1081  1082     9 
 1078  1080  1081  1083     9 
 1078  1080  1081  1097     9 
 1080  1081  1083  1084     9 
 1080  1081  1083  1093     9 
 1082  1081  1083  1084     9 
 1082  1081  1083  1093     9 
 1097  1081  1083  1084     9 
 1097  1081  1083  1093     9 
 1080  1081  1097  1095     9 
 1080  1081  1097  1098     9 
 1080  1081  1097  1099     9 
 1082  1081  1097  1095     9 
 1082  1081  1097  1098     9 
 1082  1081  1097  1099     9 
 1083  1081  1097  1095     9 
 1083  1081  1097  1098     9 
 1083  1081  1097  1099     9 
 1081  1083  1084  1085     9 
 1081  1083  1084  1086     9 
 1093  1083  1084  1085     9 
 1093  1083  1084  1086     9 
 1081  1083  1093  1092     9 
 1081  1083  1093  1094     9 
 1084  1083  1093  1092     9 
 1084  1083  1093  1094     9 
 1083  1084  1086  1087     9 
 1083  1084  1086  1088     9 
 1085  1084  1086  1087     9 
 1085  1084  1086  1088     9 
 1084  1086  1088  1089     9 
 1084  1086  1088  1092     9 
 1087  1086  1088  1089     9 
 1087  1086  1088  1092     9 
 1086  1088  1089  1090     9 
 1086  1088  1089  1091     9 
 1092  1088  1089  1090     9 
 1092  1088  1089  1091     9 
 1086  1088  1092  1093     9 
 1089  1088  1092  1093     9 
 1088  1092  1093  1083     9 
 1088  1092  1093  1094     9 
 1078  1095  1097  1081     9 
 1078  1095  1097  1098     9 
 1078  1095  1097  1099     9 
 1096  1095  1097  1081     9 
 1096  1095  1097  1098     9 
 1096  1095  1097  1099     9 
 1100  1095  1097  1081     9 
 1100  1095  1097  1098     9 
 1100  1095  1097  1099     9 
 1078  1095  1100  1101     9 
 1096  1095  1100  1101     9 
 1097  1095  1100  1101     9 
 1095  1100  1101  1102     9 
 1095  1100  1101  1103     9 
 1095  1100  1101  1104     9 
 1100  1101  1104  1105     9 
 1102  1101  1104  1105     9 
 1103  1101  1104  1105     9 
 1101  1104  1105  1106     9 
 1101  1104  1105  1107     9 
 1101  1104  1105  1108     9 
 1104  1105  1108  1109     9 
 1104  1105  1108  1110     9 
 1104  1105  1108  1128     9 
 1106  1105  1108  1109     9 
 1106  1105  1108  1110     9 
 1106  1105  1108  1128     9 
 1107  1105  1108  1109     9 
 1107  1105  1108  1110     9 
 1107  1105  1108  1128     9 
 1105  1108  1110  1111     9 
 1109  1108  1110  1111     9 
 1128  1108  1110  1111     9 
 1105  1108  1128  1129     9 
 1105  1108  1128  1130     9 
 1105  1108  1128  1133     9 
 1109  1108  1128  1129     9 
 1109  1108  1128  1130     9 
 1109  1108  1128  1133     9 
 1110  1108  1128  1129     9 
 1110  1108  1128  1130     9 
 1110  1108  1128  1133     9 
 1108  1110  1111  1112     9 
 1108  1110  1111  1113     9 
 1108  1110  1111  1130     9 
 1110  1111  1113  1114     9 
 1110  1111  1113  1127     9 
 1112  1111  1113  1114     9 
 1112  1111  1113  1127     9 
 1130  1111  1113  1114     9 
 1130  1111  1113  1127     9 
 1110  1111  1130  1128     9 
 1110  1111  1130  1131     9 
 1110  1111  1130  1132     9 
 1112  1111  1130  1128     9 
 1112  1111  1130  1131     9 
 1112  1111  1130  1132     9 
 1113  1111  1130  1128     9 
 1113  1111  1130  1131     9 
 1113  1111  1130  1132     9 
 1111  1113  1114  1115     9 
 1111  1113  1114  1116     9 
 1127  1113  1114  1115     9 
 1127  1113  1114  1116     9 
 1111  1113  1127  1117     9 
 1111  1113  1127  1126     9 
 1114  1113  1127  1117     9 
 1114  1113  1127  1126     9 
 1113  1114  1116  1117     9 
 1115  1114  1116  1117     9 
 1114  1116  1117  1118     9 
 1114  1116  1117  1127     9 
 1116  1117  1118  1119     9 
 1116  1117  1118  1120     9 
 1127  1117  1118  1119     9 
 1127  1117  1118  1120     9 
 1116  1117  1127  1113     9 
 1116  1117  1127  1126     9 
 1118  1117  1127  1113     9 
 1118  1117  1127  1126     9 
 1117  1118  1120  1121     9 
 1117  1118  1120  1122     9 
 1119  1118  1120  1121     9 
 1119  1118  1120  1122     9 
 1118  1120  1122  1123     9 
 1118  1120  1122  1126     9 
 1121  1120  1122  1123     9 
 1121  1120  1122  1126     9 
 1120  1122  1123  1124     9 
 1120  1122  1123  1125     9 
 1126  1122  1123  1124     9 
 1126  1122  1123  1125     9 
 1120  1122  1126  1127     9 
 1123  1122  1126  1127     9 
 1122  1126  1127  1113     9 
 1122  1126  1127  1117     9 
 1108  1128  1130  1111     9 
 1108  1128  1130  1131     9 
 1108  1128  1130  1132     9 
 1129  1128  1130  1111     9 
 1129  1128  1130  1131     9 
 1129  1128  1130  1132     9 
 1133  1128  1130  1111     9 
 1133  1128  1130  1131     9 
 1133  1128  1130  1132     9 
 1108  1128  1133  1134     9 
 1129  1128  1133  1134     9 
 1130  1128  1133  1134     9 
 1128  1133  1134  1135     9 
 1128  1133  1134  1136     9 
 1128  1133  1134  1137     9 
 1133  1134  1137  1138     9 
 1135  1134  1137  1138     9 
 1136  1134  1137  1138     9 
 1134  1137  1138  1139     9 
 1134  1137  1138  1140     9 
 1134  1137  1138  1141     9 
 1137  1138  1141  1142     9 
 1137  1138  1141  1143     9 
 1137  1138  1141  1161     9 
 1139  1138  1141  1142     9 
 1139  1138  1141  1143     9 
 1139  1138  1141  1161     9 
 1140  1138  1141  1142     9 
 1140  1138  1141  1143     9 
 1140  1138  1141  1161     9 
 1138  1141  1143  1144     9 
 1142  1141  1143  1144     9 
 1161  1141  1143  1144     9 
 1138  1141  1161  1162     9 
 1138  1141  1161  1163     9 
 1138  1141  1161  1166     9 
 1142  1141  1161  1162     9 
 1142  1141  1161  1163     9 
 1142  1141  1161  1166     9 
 1143  1141  1161  1162     9 
 1143  1141  1161  1163     9 
 1143  1141  1161  1166     9 
 1141  1143  1144  1145     9 
 1141  1143  1144  1146     9 
 1141  1143  1144  1163     9 
 1143  1144  1146  1147     9 
 1143  1144  1146  1160     9 
 1145  1144  1146  1147     9 
 1145  1144  1146  1160     9 
 1163  1144  1146  1147     9 
 1163  1144  1146  1160     9 
 1143  1144  1163  1161     9 
 1143  1144  1163  1164     9 
 1143  1144  1163  1165     9 
 1145  1144  1163  1161     9 
 1145  1144  1163  1164     9 
 1145  1144  1163  1165     9 
 1146  1144  1163  1161     9 
 1146  1144  1163  1164     9 
 1146  1144  1163  1165     9 
 1144  1146  1147  1148     9 
 1144  1146  1147  1149     9 
 1160  1146  1147  1148     9 
 1160  1146  1147  1149     9 
 1144  1146  1160  1150     9 
 1144  1146  1160  1159     9 
 1147  1146  1160  1150     9 
 1147  1146  1160  1159     9 
 1146  1147  1149  1150     9 
 1148  1147  1149  1150     9 
 1147  1149  1150  1151     9 
 1147  1149  1150  1160     9 
 1149  1150  1151  1152     9 
 1149  1150  1151  1153     9 
 1160  1150  1151  1152     9 
 1160  1150  1151  1153     9 
 1149  1150  1160  1146     9 
 1149  1150  1160  1159     9 
 1151  1150  1160  1146     9 
 1151  1150  1160  1159     9 
 1150  1151  1153  1154     9 
 1150  1151  1153  1155     9 
 1152  1151  1153  1154     9 
 1152  1151  1153  1155     9 
 1151  1153  1155  1156     9 
 1151  1153  1155  1159     9 
 1154  1153  1155  1156     9 
 1154  1153  1155  1159     9 
 1153  1155  1156  1157     9 
 1153  1155  1156  1158     9 
 1159  1155  1156  1157     9 
 1159  1155  1156  1158     9 
 1153  1155  1159  1160     9 
 1156  1155  1159  1160     9 
 1155  1159  1160  1146     9 
 1155  1159  1160  1150     9 
 1141  1161  1163  1144     9 
 1141  1161  1163  1164     9 
 1141  1161  1163  1165     9 
 1162  1161  1163  1144     9 
 1162  1161  1163  1164     9 
 1162  1161  1163  1165     9 
 1166  1161  1163  1144     9 
 1166  1161  1163  1164     9 
 1166  1161  1163  1165     9 
 1141  1161  1166  1167     9 
 1162  1161  1166  1167     9 
 1163  1161  1166  1167     9 
 1161  1166  1167  1168     9 
 1161  1166  1167  1169     9 
 1161  1166  1167  1170     9 
 1166  1167  1170  1171     9 
 1168  1167  1170  1171     9 
 1169  1167  1170  1171     9 
 1167  1170  1171  1172     9 
 1167  1170  1171  1173     9 
 1167  1170  1171  1174     9 
 1170  1171  1174  1175     9 
 1170  1171  1174  1176     9 
 1170  1171  1174  1191     9 
 1172  1171  1174  1175     9 
 1172  1171  1174  1176     9 
 1172  1171  1174  1191     9 
 1173  1171  1174  1175     9 
 1173  1171  1174  1176     9 
 1173  1171  1174  1191     9 
 1171  1174  1176  1177     9 
 1175  1174  1176  1177     9 
 1191  1174  1176  1177     9 
 1171  1174  1191  1192     9 
 1171  1174  1191  1193     9 
 1171  1174  1191  1196     9 
 1175  1174  1191  1192     9 
 1175  1174  1191  1193     9 
 1175  1174  1191  1196     9 
 1176  1174  1191  1192     9 
 1176  1174  1191  1193     9 
 1176  1174  1191  1196     9 
 1174  1176  1177  1178     9 
 1174  1176  1177  1179     9 
 1174  1176  1177  1193     9 
 1176  1177  1179  1180     9 
 1176  1177  1179  1189     9 
 1178  1177  1179  1180     9 
 1178  1177  1179  1189     9 
 1193  1177  1179  1180     9 
 1193  1177  1179  1189     9 
 1176  1177  1193  1191     9 
 1176  1177  1193  1194     9 
 1176  1177  1193  1195     9 
 1178  1177  1193  1191     9 
 1178  1177  1193  1194     9 
 1178  1177  1193  1195     9 
 1179  1177  1193  1191     9 
 1179  1177  1193  1194     9 
 1179  1177  1193  1195     9 
 1177  1179  1180  1181     9 
 1177  1179  1180  1182     9 
 1189  1179  1180  1181     9 
 1189  1179  1180  1182     9 
 1177  1179  1189  1188     9 
 1177  1179  1189  1190     9 
 1180  1179  1189  1188     9 
 1180  1179  1189  1190     9 
 1179  1180  1182  1183     9 
 1179  1180  1182  1184     9 
 1181  1180  1182  1183     9 
 1181  1180  1182  1184     9 
 1180  1182  1184  1185     9 
 1180  1182  1184  1188     9 
 1183  1182  1184  1185     9 
 1183  1182  1184  1188     9 
 1182  1184  1185  1186     9 
 1182  1184  1185  1187     9 
 1188  1184  1185  1186     9 
 1188  1184  1185  1187     9 
 1182  1184  1188  1189     9 
 1185  1184  1188  1189     9 
 1184  1188  1189  1179     9 
 1184  1188  1189  1190     9 
 1174  1191  1193  1177     9 
 1174  1191  1193  1194     9 
 1174  1191  1193  1195     9 
 1192  1191  1193  1177     9 
 1192  1191  1193  1194     9 
 1192  1191  1193  1195     9 
 1196  1191  1193  1177     9 
 1196  1191  1193  1194     9 
 1196  1191  1193  1195     9 
 1174  1191  1196  1197     9 
 1192  1191  1196  1197     9 
 1193  1191  1196  1197     9 
 1191  1196  1197  1198     9 
 1191  1196  1197  1199     9 
 1191  1196  1197  1200     9 
 1196  1197  1200  1201     9 
 1198  1197  1200  1201     9 
 1199  1197  1200  1201     9 
 1197  1200  1201  1202     9 
 1197  1200  1201  1203     9 
 1197  1200  1201  1204     9 
 1200  1201  1204  1205     9 
 1200  1201  1204  1206     9 
 1200  1201  1204  1224     9 
 1202  1201  1204  1205     9 
 1202  1201  1204  1206     9 
 1202  1201  1204  1224     9 
 1203  1201  1204  1205     9 
 1203  1201  1204  1206     9 
 1203  1201  1204  1224     9 
 1201  1204  1206  1207     9 
 1205  1204  1206  1207     9 
 1224  1204  1206  1207     9 
 1201  1204  1224  1225     9 
 1201  1204  1224  1226     9 
 1201  1204  1224  1229     9 
 1205  1204  1224  1225     9 
 1205  1204  1224  1226     9 
 1205  1204  1224  1229     9 
 1206  1204  1224  1225     9 
 1206  1204  1224  1226     9 
 1206  1204  1224  1229     9 
 1204  1206  1207  1208     9 
 1204  1206  1207  1209     9 
 1204  1206  1207  1226     9 
 1206  1207  1209  1210     9 
 1206  1207  1209  1223     9 
 1208  1207  1209  1210     9 
 1208  1207  1209  1223     9 
 1226  1207  1209  1210     9 
 1226  1207  1209  1223     9 
 1206  1207  1226  1224     9 
 1206  1207  1226  1227     9 
 1206  1207  1226  1228     9 
 1208  1207  1226  1224     9 
 1208  1207  1226  1227     9 
 1208  1207  1226  1228     9 
 1209  1207  1226  1224     9 
 1209  1207  1226  1227     9 
 1209  1207  1226  1228     9 
 1207  1209  1210  1211     9 
 1207  1209  1210  1212     9 
 1223  1209  1210  1211     9 
 1223  1209  1210  1212     9 
 1207  1209  1223  1213     9 
 1207  1209  1223  1222     9 
 1210  1209  1223  1213     9 
 1210  1209  1223  1222     9 
 1209  1210  1212  1213     9 
 1211  1210  1212  1213     9 
 1210  1212  1213  1214     9 
 1210  1212  1213  1223     9 
 1212  1213  1214  1215     9 
 1212  1213  1214  1216     9 
 1223  1213  1214  1215     9 
 1223  1213  1214  1216     9 
 1212  1213  1223  1209     9 
 1212  1213  1223  1222     9 
 1214  1213  1223  1209     9 
 1214  1213  1223  1222     9 
 1213  1214  1216  1217     9 
 1213  1214  1216  1218     9 
 1215  1214  1216  1217     9 
 1215  1214  1216  1218     9 
 1214  1216  1218  1219     9 
 1214  1216  1218  1222     9 
 1217  1216  1218  1219     9 
 1217  1216  1218  1222     9 
 1216  1218  1219  1220     9 
 1216  1218  1219  1221     9 
 1222  1218  1219  1220     9 
 1222  1218  1219  1221     9 
 1216  1218  1222  1223     9 
 1219  1218  1222  1223     9 
 1218  1222  1223  1209     9 
 1218  1222  1223  1213     9 
 1204  1224  1226  1207     9 
 1204  1224  1226  1227     9 
 1204  1224  1226  1228     9 
 1225  1224  1226  1207     9 
 1225  1224  1226  1227     9 
 1225  1224  1226  1228     9 
 1229  1224  1226  1207     9 
 1229  1224  1226  1227     9 
 1229  1224  1226  1228     9 
 1204  1224  1229  1230     9 
 1225  1224  1229  1230     9 
 1226  1224  1229  1230     9 
 1224  1229  1230  1231     9 
 1224  1229  1230  1232     9 
 1224  1229  1230  1233     9 
 1229  1230  1233  1234     9 
 1231  1230  1233  1234     9 
 1232  1230  1233  1234     9 
 1230  1233  1234  1235     9 
 1230  1233  1234  1236     9 
 1230  1233  1234  1237     9 
 1233  1234  1237  1238     9 
 1233  1234  1237  1239     9 
 1233  1234  1237  1254     9 
 1235  1234  1237  1238     9 
 1235  1234  1237  1239     9 
 1235  1234  1237  1254     9 
 1236  1234  1237  1238     9 
 1236  1234  1237  1239     9 
 1236  1234  1237  1254     9 
 1234  1237  1239  1240     9 
 1238  1237  1239  1240     9 
 1254  1237  1239  1240     9 
 1234  1237  1254  1255     9 
 1234  1237  1254  1256     9 
 1234  1237  1254  1259     9 
 1238  1237  1254  1255     9 
 1238  1237  1254  1256     9 
 1238  1237  1254  1259     9 
 1239  1237  1254  1255     9 
 1239  1237  1254  1256     9 
 1239  1237  1254  1259     9 
 1237  1239  1240  1241     9 
 1237  1239  1240  1242     9 
 1237  1239  1240  1256     9 
 1239  1240  1242  1243     9 
 1239  1240  1242  1252     9 
 1241  1240  1242  1243     9 
 1241  1240  1242  1252     9 
 1256  1240  1242  1243     9 
 1256  1240  1242  1252     9 
 1239  1240  1256  1254     9 
 1239  1240  1256  1257     9 
 1239  1240  1256  1258     9 
 1241  1240  1256  1254     9 
 1241  1240  1256  1257     9 
 1241  1240  1256  1258     9 
 1242  1240  1256  1254     9 
 1242  1240  1256  1257     9 
 1242  1240  1256  1258     9 
 1240  1242  1243  1244     9 
 1240  1242  1243  1245     9 
 1252  1242  1243  1244     9 
 1252  1242  1243  1245     9 
 1240  1242  1252  1251     9 
 1240  1242  1252  1253     9 
 1243  1242  1252  1251     9 
 1243  1242  1252  1253     9 
 1242  1243  1245  1246     9 
 1242  1243  1245  1247     9 
 1244  1243  1245  1246     9 
 1244  1243  1245  1247     9 
 1243  1245  1247  1248     9 
 1243  1245  1247  1251     9 
 1246  1245  1247  1248     9 
 1246  1245  1247  1251     9 
 1245  1247  1248  1249     9 
 1245  1247  1248  1250     9 
 1251  1247  1248  1249     9 
 1251  1247  1248  1250     9 
 1245  1247  1251  1252     9 
 1248  1247  1251  1252     9 
 1247  1251  1252  1242     9 
 1247  1251  1252  1253     9 
 1237  1254  1256  1240     9 
 1237  1254  1256  1257     9 
 1237  1254  1256  1258     9 
 1255  1254  1256  1240     9 
 1255  1254  1256  1257     9 
 1255  1254  1256  1258     9 
 1259  1254  1256  1240     9 
 1259  1254  1256  1257     9 
 1259  1254  1256  1258     9 
 1237  1254  1259  1260     9 
 1255  1254  1259  1260     9 
 1256  1254  1259  1260     9 
 1254  1259  1260  1261     9 
 1254  1259  1260  1262     9 
 1254  1259  1260  1263     9 
 1259  1260  1263  1264     9 
 1261  1260  1263  1264     9 
 1262  1260  1263  1264     9 
 1260  1263  1264  1265     9 
 1260  1263  1264  1266     9 
 1260  1263  1264  1267     9 
 1263  1264  1267  1268     9 
 1263  1264  1267  1269     9 
 1263  1264  1267  1286     9 
 1265  1264  1267  1268     9 
 1265  1264  1267  1269     9 
 1265  1264  1267  1286     9 
 1266  1264  1267  1268     9 
 1266  1264  1267  1269     9 
 1266  1264  1267  1286     9 
 1264  1267  1269  1270     9 
 1268  1267  1269  1270     9 
 1286  1267  1269  1270     9 
 1264  1267  1286  1287     9 
 1264  1267  1286  1288     9 
 1264  1267  1286  1291     9 
 1268  1267  1286  1287     9 
 1268  1267  1286  1288     9 
 1268  1267  1286  1291     9 
 1269  1267  1286  1287     9 
 1269  1267  1286  1288     9 
 1269  1267  1286  1291     9 
 1267  1269  1270  1271     9 
 1267  1269  1270  1272     9 
 1267  1269  1270  1288     9 
 1269  1270  1272  1273     9 
 1269  1270  1272  1285     9 
 1271  1270  1272  1273     9 
 1271  1270  1272  1285     9 
 1288  1270  1272  1273     9 
 1288  1270  1272  1285     9 
 1269  1270  1288  1286     9 
 1269  1270  1288  1289     9 
 1269  1270  1288  1290     9 
 1271  1270  1288  1286     9 
 1271  1270  1288  1289     9 
 1271  1270  1288  1290     9 
 1272  1270  1288  1286     9 
 1272  1270  1288  1289     9 
 1272  1270  1288  1290     9 
 1270  1272  1273  1274     9 
 1270  1272  1273  1275     9 
 1285  1272  1273  1274     9 
 1285  1272  1273  1275     9 
 1270  1272  1285  1276     9 
 1270  1272  1285  1284     9 
 1273  1272  1285  1276     9 
 1273  1272  1285  1284     9 
 1272  1273  1275  1276     9 
 1274  1273  1275  1276     9 
 1273  1275  1276  1277     9 
 1273  1275  1276  1285     9 
 1275  1276  1277  1278     9 
 1275  1276  1277  1281     9 
 1285  1276  1277  1278     9 
 1285  1276  1277  1281     9 
 1275  1276  1285  1272     9 
 1275  1276  1285  1284     9 
 1277  1276  1285  1272     9 
 1277  1276  1285  1284     9 
 1276  1277  1278  1279     9 
 1276  1277  1278  1280     9 
 1281  1277  1278  1279     9 
 1281  1277  1278  1280     9 
 1276  1277  1281  1282     9 
 1278  1277  1281  1282     9 
 1277  1281  1282  1283     9 
 1277  1281  1282  1284     9 
 1281  1282  1284  1285     9 
 1283  1282  1284  1285     9 
 1282  1284  1285  1272     9 
 1282  1284  1285  1276     9 
 1267  1286  1288  1270     9 
 1267  1286  1288  1289     9 
 1267  1286  1288  1290     9 
 1287  1286  1288  1270     9 
 1287  1286  1288  1289     9 
 1287  1286  1288  1290     9 
 1291  1286  1288  1270     9 
 1291  1286  1288  1289     9 
 1291  1286  1288  1290     9 
 1267  1286  1291  1292     9 
 1287  1286  1291  1292     9 
 1288  1286  1291  1292     9 
 1286  1291  1292  1293     9 
 1286  1291  1292  1294     9 
 1286  1291  1292  1295     9 
 1291  1292  1295  1296     9 
 1293  1292  1295  1296     9 
 1294  1292  1295  1296     9 
 1292  1295  1296  1297     9 
 1292  1295  1296  1298     9 
 1292  1295  1296  1299     9 
 1295  1296  1299  1300     9 
 1295  1296  1299  1301     9 
 1295  1296  1299  1319     9 
 1297  1296  1299  1300     9 
 1297  1296  1299  1301     9 
 1297  1296  1299  1319     9 
 1298  1296  1299  1300     9 
 1298  1296  1299  1301     9 
 1298  1296  1299  1319     9 
 1296  1299  1301  1302     9 
 1300  1299  1301  1302     9 
 1319  1299  1301  1302     9 
 1296  1299  1319  1320     9 
 1296  1299  1319  1321     9 
 1296  1299  1319  1324     9 
 1300  1299  1319  1320     9 
 1300  1299  1319  1321     9 
 1300  1299  1319  1324     9 
 1301  1299  1319  1320     9 
 1301  1299  1319  1321     9 
 1301  1299  1319  1324     9 
 1299  1301  1302  1303     9 
 1299  1301  1302  1304     9 
 1299  1301  1302  1321     9 
 1301  1302  1304  1305     9 
 1301  1302  1304  1318     9 
 1303  1302  1304  1305     9 
 1303  1302  1304  1318     9 
 1321  1302  1304  1305     9 
 1321  1302  1304  1318     9 
 1301  1302  1321  1319     9 
 1301  1302  1321  1322     9 
 1301  1302  1321  1323     9 
 1303  1302  1321  1319     9 
 1303  1302  1321  1322     9 
 1303  1302  1321  1323     9 
 1304  1302  1321  1319     9 
 1304  1302  1321  1322     9 
 1304  1302  1321  1323     9 
 1302  1304  1305  1306     9 
 1302  1304  1305  1307     9 
 1318  1304  1305  1306     9 
 1318  1304  1305  1307     9 
 1302  1304  1318  1308     9 
 1302  1304  1318  1317     9 
 1305  1304  1318  1308     9 
 1305  1304  1318  1317     9 
 1304  1305  1307  1308     9 
 1306  1305  1307  1308     9 
 1305  1307  1308  1309     9 
 1305  1307  1308  1318     9 
 1307  1308  1309  1310     9 
 1307  1308  1309  1311     9 
 1318  1308  1309  1310     9 
 1318  1308  1309  1311     9 
 1307  1308  1318  1304     9 
 1307  1308  1318  1317     9 
 1309  1308  1318  1304     9 
 1309  1308  1318  1317     9 
 1308  1309  1311  1312     9 
 1308  1309  1311  1313     9 
 1310  1309  1311  1312     9 
 1310  1309  1311  1313     9 
 1309  1311  1313  1314     9 
 1309  1311  1313  1317     9 
 1312  1311  1313  1314     9 
 1312  1311  1313  1317     9 
 1311  1313  1314  1315     9 
 1311  1313  1314  1316     9 
 1317  1313  1314  1315     9 
 1317  1313  1314  1316     9 
 1311  1313  1317  1318     9 
 1314  1313  1317  1318     9 
 1313  1317  1318  1304     9 
 1313  1317  1318  1308     9 
 1299  1319  1321  1302     9 
 1299  1319  1321  1322     9 
 1299  1319  1321  1323     9 
 1320  1319  1321  1302     9 
 1320  1319  1321  1322     9 
 1320  1319  1321  1323     9 
 1324  1319  1321  1302     9 
 1324  1319  1321  1322     9 
 1324  1319  1321  1323     9 
 1299  1319  1324  1325     9 
 1320  1319  1324  1325     9 
 1321  1319  1324  1325     9 
 1319  1324  1325  1326     9 
 1319  1324  1325  1327     9 
 1319  1324  1325  1328     9 
 1324  1325  1328  1329     9 
 1326  1325  1328  1329     9 
 1327  1325  1328  1329     9 
 1325  1328  1329  1330     9 
 1325  1328  1329  1331     9 
 1325  1328  1329  1332     9 
 1328  1329  1332  1333     9 
 1328  1329  1332  1334     9 
 1328  1329  1332  1352     9 
 1330  1329  1332  1333     9 
 1330  1329  1332  1334     9 
 1330  1329  1332  1352     9 
 1331  1329  1332  1333     9 
 1331  1329  1332  1334     9 
 1331  1329  1332  1352     9 
 1329  1332  1334  1335     9 
 1333  1332  1334  1335     9 
 1352  1332  1334  1335     9 
 1329  1332  1352  1353     9 
 1329  1332  1352  1354     9 
 1329  1332  1352  1357     9 
 1333  1332  1352  1353     9 
 1333  1332  1352  1354     9 
 1333  1332  1352  1357     9 
 1334  1332  1352  1353     9 
 1334  1332  1352  1354     9 
 1334  1332  1352  1357     9 
 1332  1334  1335  1336     9 
 1332  1334  1335  1337     9 
 1332  1334  1335  1354     9 
 1334  1335  1337  1338     9 
 1334  1335  1337  1351     9 
 1336  1335  1337  1338     9 
 1336  1335  1337  1351     9 
 1354  1335  1337  1338     9 
 1354  1335  1337  1351     9 
 1334  1335  1354  1352     9 
 1334  1335  1354  1355     9 
 1334  1335  1354  1356     9 
 1336  1335  1354  1352     9 
 1336  1335  1354  1355     9 
 1336  1335  1354  1356     9 
 1337  1335  1354  1352     9 
 1337  1335  1354  1355     9 
 1337  1335  1354  1356     9 
 1335  1337  1338  1339     9 
 1335  1337  1338  1340     9 
 1351  1337  1338  1339     9 
 1351  1337  1338  1340     9 
 1335  1337  1351  1341     9 
 1335  1337  1351  1350     9 
 1338  1337  1351  1341     9 
 1338  1337  1351  1350     9 
 1337  1338  1340  1341     9 
 1339  1338  1340  1341     9 
 1338  1340  1341  1342     9 
 1338  1340  1341  1351     9 
 1340  1341  1342  1343     9 
 1340  1341  1342  1344     9 
 1351  1341  1342  1343     9 
 1351  1341  1342  1344     9 
 1340  1341  1351  1337     9 
 1340  1341  1351  1350     9 
 1342  1341  1351  1337     9 
 1342  1341  1351  1350     9 
 1341  1342  1344  1345     9 
 1341  1342  1344  1346     9 
 1343  1342  1344  1345     9 
 1343  1342  1344  1346     9 
 1342  1344  1346  1347     9 
 1342  1344  1346  1350     9 
 1345  1344  1346  1347     9 
 1345  1344  1346  1350     9 
 1344  1346  1347  1348     9 
 1344  1346  1347  1349     9 
 1350  1346  1347  1348     9 
 1350  1346  1347  1349     9 
 1344  1346  1350  1351     9 
 1347  1346  1350  1351     9 
 1346  1350  1351  1337     9 
 1346  1350  1351  1341     9 
 1332  1352  1354  1335     9 
 1332  1352  1354  1355     9 
 1332  1352  1354  1356     9 
 1353  1352  1354  1335     9 
 1353  1352  1354  1355     9 
 1353  1352  1354  1356     9 
 1357  1352  1354  1335     9 
 1357  1352  1354  1355     9 
 1357  1352  1354  1356     9 
 1332  1352  1357  1358     9 
 1353  1352  1357  1358     9 
 1354  1352  1357  1358     9 
 1352  1357  1358  1359     9 
 1352  1357  1358  1360     9 
 1352  1357  1358  1361     9 
 1357  1358  1361  1362     9 
 1359  1358  1361  1362     9 
 1360  1358  1361  1362     9 
 1358  1361  1362  1363     9 
 1358  1361  1362  1364     9 
 1358  1361  1362  1365     9 
 1361  1362  1365  1366     9 
 1361  1362  1365  1367     9 
 1361  1362  1365  1382     9 
 1363  1362  1365  1366     9 
 1363  1362  1365  1367     9 
 1363  1362  1365  1382     9 
 1364  1362  1365  1366     9 
 1364  1362  1365  1367     9 
 1364  1362  1365  1382     9 
 1362  1365  1367  1368     9 
 1366  1365  1367  1368     9 
 1382  1365  1367  1368     9 
 1362  1365  1382  1383     9 
 1362  1365  1382  1384     9 
 1362  1365  1382  1387     9 
 1366  1365  1382  1383     9 
 1366  1365  1382  1384     9 
 1366  1365  1382  1387     9 
 1367  1365  1382  1383     9 
 1367  1365  1382  1384     9 
 1367  1365  1382  1387     9 
 1365  1367  1368  1369     9 
 1365  1367  1368  1370     9 
 1365  1367  1368  1384     9 
 1367  1368  1370  1371     9 
 1367  1368  1370  1380     9 
 1369  1368  1370  1371     9 
 1369  1368  1370  1380     9 
 1384  1368  1370  1371     9 
 1384  1368  1370  1380     9 
 1367  1368  1384  1382     9 
 1367  1368  1384  1385     9 
 1367  1368  1384  1386     9 
 1369  1368  1384  1382     9 
 1369  1368  1384  1385     9 
 1369  1368  1384  1386     9 
 1370  1368  1384  1382     9 
 1370  1368  1384  1385     9 
 1370  1368  1384  1386     9 
 1368  1370  1371  1372     9 
 1368  1370  1371  1373     9 
 1380  1370  1371  1372     9 
 1380  1370  1371  1373     9 
 1368  1370  1380  1379     9 
 1368  1370  1380  1381     9 
 1371  1370  1380  1379     9 
 1371  1370  1380  1381     9 
 1370  1371  1373  1374     9 
 1370  1371  1373  1375     9 
 1372  1371  1373  1374     9 
 1372  1371  1373  1375     9 
 1371  1373  1375  1376     9 
 1371  1373  1375  1379     9 
 1374  1373  1375  1376     9 
 1374  1373  1375  1379     9 
 1373  1375  1376  1377     9 
 1373  1375  1376  1378     9 
 1379  1375  1376  1377     9 
 1379  1375  1376  1378     9 
 1373  1375  1379  1380     9 
 1376  1375  1379  1380     9 
 1375  1379  1380  1370     9 
 1375  1379  1380  1381     9 
 1365  1382  1384  1368     9 
 1365  1382  1384  1385     9 
 1365  1382  1384  1386     9 
 1383  1382  1384  1368     9 
 1383  1382  1384  1385     9 
 1383  1382  1384  1386     9 
 1387  1382  1384  1368     9 
 1387  1382  1384  1385     9 
 1387  1382  1384  1386     9 
 1365  1382  1387  1388     9 
 1383  1382  1387  1388     9 
 1384  1382  1387  1388     9 
 1382  1387  1388  1389     9 
 1382  1387  1388  1390     9 
 1382  1387  1388  1391     9 
 1387  1388  1391  1392     9 
 1389  1388  1391  1392     9 
 1390  1388  1391  1392     9 
 1388  1391  1392  1393     9 
 1388  1391  1392  1394     9 
 1388  1391  1392  1395     9 
 1391  1392  1395  1396     9 
 1391  1392  1395  1397     9 
 1391  1392  1395  1414     9 
 1393  1392  1395  1396     9 
 1393  1392  1395  1397     9 
 1393  1392  1395  1414     9 
 1394  1392  1395  1396     9 
 1394  1392  1395  1397     9 
 1394  1392  1395  1414     9 
 1392  1395  1397  1398     9 
 1396  1395  1397  1398     9 
 1414  1395  1397  1398     9 
 1392  1395  1414  1415     9 
 1392  1395  1414  1416     9 
 1392  1395  1414  1419     9 
 1396  1395  1414  1415     9 
 1396  1395  1414  1416     9 
 1396  1395  1414  1419     9 
 1397  1395  1414  1415     9 
 1397  1395  1414  1416     9 
 1397  1395  1414  1419     9 
 1395  1397  1398  1399     9 
 1395  1397  1398  1400     9 
 1395  1397  1398  1416     9 
 1397  1398  1400  1401     9 
 1397  1398  1400  1413     9 
 1399  1398  1400  1401     9 
 1399  1398  1400  1413     9 
 1416  1398  1400  1401     9 
 1416  1398  1400  1413     9 
 1397  1398  1416  1414     9 
 1397  1398  1416  1417     9 
 1397  1398  1416  1418     9 
 1399  1398  1416  1414     9 
 1399  1398  1416  1417     9 
 1399  1398  1416  1418     9 
 1400  1398  1416  1414     9 
 1400  1398  1416  1417     9 
 1400  1398  1416  1418     9 
 1398  1400  1401  1402     9 
 1398  1400  1401  1403     9 
 1413  1400  1401  1402     9 
 1413  1400  1401  1403     9 
 1398  1400  1413  1404     9 
 1398  1400  1413  1412     9 
 1401  1400  1413  1404     9 
 1401  1400  1413  1412     9 
 1400  1401  1403  1404     9 
 1402  1401  1403  1404     9 
 1401  1403  1404  1405     9 
 1401  1403  1404  1413     9 
 1403  1404  1405  1406     9 
 1403  1404  1405  1409     9 
 1413  1404  1405  1406     9 
 1413  1404  1405  1409     9 
 1403  1404  1413  1400     9 
 1403  1404  1413  1412     9 
 1405  1404  1413  1400     9 
 1405  1404  1413  1412     9 
 1404  1405  1406  1407     9 
 1404  1405  1406  1408     9 
 1409  1405  1406  1407     9 
 1409  1405  1406  1408     9 
 1404  1405  1409  1410     9 
 1406  1405  1409  1410     9 
 1405  1409  1410  1411     9 
 1405  1409  1410  1412     9 
 1409  1410  1412  1413     9 
 1411  1410  1412  1413     9 
 1410  1412  1413  1400     9 
 1410  1412  1413  1404     9 
 1395  1414  1416  1398     9 
 1395  1414  1416  1417     9 
 1395  1414  1416  1418     9 
 1415  1414  1416  1398     9 
 1415  1414  1416  1417     9 
 1415  1414  1416  1418     9 
 1419  1414  1416  1398     9 
 1419  1414  1416  1417     9 
 1419  1414  1416  1418     9 
 1395  1414  1419  1420     9 
 1415  1414  1419  1420     9 
 1416  1414  1419  1420     9 
 1414  1419  1420  1421     9 
 1414  1419  1420  1422     9 
 1414  1419  1420  1423     9 
 1419  1420  1423  1424     9 
 1421  1420  1423  1424     9 
 1422  1420  1423  1424     9 
 1420  1423  1424  1425     9 
 1420  1423  1424  1426     9 
 1420  1423  1424  1427     9 
 1423  1424  1427  1428     9 
 1423  1424  1427  1429     9 
 1423  1424  1427  1444     9 
 1425  1424  1427  1428     9 
 1425  1424  1427  1429     9 
 1425  1424  1427  1444     9 
 1426  1424  1427  1428     9 
 1426  1424  1427  1429     9 
 1426  1424  1427  1444     9 
 1424  1427  1429  1430     9 
 1428  1427  1429  1430     9 
 1444  1427  1429  1430     9 
 1424  1427  1444  1445     9 
 1424  1427  1444  1446     9 
 1424  1427  1444  1449     9 
 1428  1427  1444  1445     9 
 1428  1427  1444  1446     9 
 1428  1427  1444  1449     9 
 1429  1427  1444  1445     9 
 1429  1427  1444  1446     9 
 1429  1427  1444  1449     9 
 1427  1429  1430  1431     9 
 1427  1429  1430  1432     9 
 1427  1429  1430  1446     9 
 1429  1430  1432  1433     9 
 1429  1430  1432  1442     9 
 1431  1430  1432  1433     9 
 1431  1430  1432  1442     9 
 1446  1430  1432  1433     9 
 1446  1430  1432  1442     9 
 1429  1430  1446  1444     9 
 1429  1430  1446  1447     9 
 1429  1430  1446  1448     9 
 1431  1430  1446  1444     9 
 1431  1430  1446  1447     9 
 1431  1430  1446  1448     9 
 1432  1430  1446  1444     9 
 1432  1430  1446  1447     9 
 1432  1430  1446  1448     9 
 1430  1432  1433  1434     9 
 1430  1432  1433  1435     9 
 1442  1432  1433  1434     9 
 1442  1432  1433  1435     9 
 1430  1432  1442  1441     9 
 1430  1432  1442  1443     9 
 1433  1432  1442  1441     9 
 1433  1432  1442  1443     9 
 1432  1433  1435  1436     9 
 1432  1433  1435  1437     9 
 1434  1433  1435  1436     9 
 1434  1433  1435  1437     9 
 1433  1435  1437  1438     9 
 1433  1435  1437  1441     9 
 1436  1435  1437  1438     9 
 1436  1435  1437  1441     9 
 1435  1437  1438  1439     9 
 1435  1437  1438  1440     9 
 1441  1437  1438  1439     9 
 1441  1437  1438  1440     9 
 1435  1437  1441  1442     9 
 1438  1437  1441  1442     9 
 1437  1441  1442  1432     9 
 1437  1441  1442  1443     9 
 1427  1444  1446  1430     9 
 1427  1444  1446  1447     9 
 1427  1444  1446  1448     9 
 1445  1444  1446  1430     9 
 1445  1444  1446  1447     9 
 1445  1444  1446  1448     9 
 1449  1444  1446  1430     9 
 1449  1444  1446  1447     9 
 1449  1444  1446  1448     9 
 1427  1444  1449  1450     9 
 1445  1444  1449  1450     9 
 1446  1444  1449  1450     9 
 1444  1449  1450  1451     9 
 1444  1449  1450  1452     9 
 1444  1449  1450  1453     9 
 1449  1450  1453  1454     9 
 1451  1450  1453  1454     9 
 1452  1450  1453  1454     9 
 1450  1453  1454  1455     9 
 1450  1453  1454  1456     9 
 1450  1453  1454  1457     9 
 1453  1454  1457  1458     9 
 1453  1454  1457  1459     9 
 1453  1454  1457  1476     9 
 1455  1454  1457  1458     9 
 1455  1454  1457  1459     9 
 1455  1454  1457  1476     9 
 1456  1454  1457  1458     9 
 1456  1454  1457  1459     9 
 1456  1454  1457  1476     9 
 1454  1457  1459  1460     9 
 1458  1457  1459  1460     9 
 1476  1457  1459  1460     9 
 1454  1457  1476  1477     9 
 1454  1457  1476  1478     9 
 1454  1457  1476  1481     9 
 1458  1457  1476  1477     9 
 1458  1457  1476  1478     9 
 1458  1457  1476  1481     9 
 1459  1457  1476  1477     9 
 1459  1457  1476  1478     9 
 1459  1457  1476  1481     9 
 1457  1459  1460  1461     9 
 1457  1459  1460  1462     9 
 1457  1459  1460  1478     9 
 1459  1460  1462  1463     9 
 1459  1460  1462  1474     9 
 1461  1460  1462  1463     9 
 1461  1460  1462  1474     9 
 1478  1460  1462  1463     9 
 1478  1460  1462  1474     9 
 1459  1460  1478  1476     9 
 1459  1460  1478  1479     9 
 1459  1460  1478  1480     9 
 1461  1460  1478  1476     9 
 1461  1460  1478  1479     9 
 1461  1460  1478  1480     9 
 1462  1460  1478  1476     9 
 1462  1460  1478  1479     9 
 1462  1460  1478  1480     9 
 1460  1462  1463  1464     9 
 1460  1462  1463  1465     9 
 1474  1462  1463  1464     9 
 1474  1462  1463  1465     9 
 1460  1462  1474  1472     9 
 1460  1462  1474  1475     9 
 1463  1462  1474  1472     9 
 1463  1462  1474  1475     9 
 1462  1463  1465  1466     9 
 1462  1463  1465  1470     9 
 1464  1463  1465  1466     9 
 1464  1463  1465  1470     9 
 1463  1465  1466  1467     9 
 1463  1465  1466  1468     9 
 1463  1465  1466  1469     9 
 1470  1465  1466  1467     9 
 1470  1465  1466  1468     9 
 1470  1465  1466  1469     9 
 1463  1465  1470  1471     9 
 1463  1465  1470  1472     9 
 1466  1465  1470  1471     9 
 1466  1465  1470  1472     9 
 1465  1470  1472  1473     9 
 1465  1470  1472  1474     9 
 1471  1470  1472  1473     9 
 1471  1470  1472  1474     9 
 1470  1472  1474  1462     9 
 1470  1472  1474  1475     9 
 1473  1472  1474  1462     9 
 1473  1472  1474  1475     9 
 1457  1476  1478  1460     9 
 1457  1476  1478  1479     9 
 1457  1476  1478  1480     9 
 1477  1476  1478  1460     9 
 1477  1476  1478  1479     9 
 1477  1476  1478  1480     9 
 1481  1476  1478  1460     9 
 1481  1476  1478  1479     9 
 1481  1476  1478  1480     9 
 1457  1476  1481  1482     9 
 1477  1476  1481  1482     9 
 1478  1476  1481  1482     9 
 1476  1481  1482  1483     9 
 1476  1481  1482  1484     9 
 1476  1481  1482  1485     9 
 1481  1482  1485  1486     9 
 1483  1482  1485  1486     9 
 1484  1482  1485  1486     9 
 1482  1485  1486  1487     9 
 1482  1485  1486  1488     9 
 1482  1485  1486  1489     9 
 1485  1486  1489  1490     9 
 1485  1486  1489  1491     9 
 1485  1486  1489  1509     9 
 1487  1486  1489  1490     9 
 1487  1486  1489  1491     9 
 1487  1486  1489  1509     9 
 1488  1486  1489  1490     9 
 1488  1486  1489  1491     9 
 1488  1486  1489  1509     9 
 1486  1489  1491  1492     9 
 1490  1489  1491  1492     9 
 1509  1489  1491  1492     9 
 1486  1489  1509  1510     9 
 1486  1489  1509  1511     9 
 1486  1489  1509  1514     9 
 1490  1489  1509  1510     9 
 1490  1489  1509  1511     9 
 1490  1489  1509  1514     9 
 1491  1489  1509  1510     9 
 1491  1489  1509  1511     9 
 1491  1489  1509  1514     9 
 1489  1491  1492  1493     9 
 1489  1491  1492  1494     9 
 1489  1491  1492  1511     9 
 1491  1492  1494  1495     9 
 1491  1492  1494  1508     9 
 1493  1492  1494  1495     9 
 1493  1492  1494  1508     9 
 1511  1492  1494  1495     9 
 1511  1492  1494  1508     9 
 1491  1492  1511  1509     9 
 1491  1492  1511  1512     9 
 1491  1492  1511  1513     9 
 1493  1492  1511  1509     9 
 1493  1492  1511  1512     9 
 1493  1492  1511  1513     9 
 1494  1492  1511  1509     9 
 1494  1492  1511  1512     9 
 1494  1492  1511  1513     9 
 1492  1494  1495  1496     9 
 1492  1494  1495  1497     9 
 1508  1494  1495  1496     9 
 1508  1494  1495  1497     9 
 1492  1494  1508  1498     9 
 1492  1494  1508  1507     9 
 1495  1494  1508  1498     9 
 1495  1494  1508  1507     9 
 1494  1495  1497  1498     9 
 1496  1495  1497  1498     9 
 1495  1497  1498  1499     9 
 1495  1497  1498  1508     9 
 1497  1498  1499  1500     9 
 1497  1498  1499  1501     9 
 1508  1498  1499  1500     9 
 1508  1498  1499  1501     9 
 1497  1498  1508  1494     9 
 1497  1498  1508  1507     9 
 1499  1498  1508  1494     9 
 1499  1498  1508  1507     9 
 1498  1499  1501  1502     9 
 1498  1499  1501  1503     9 
 1500  1499  1501  1502     9 
 1500  1499  1501  1503     9 
 1499  1501  1503  1504     9 
 1499  1501  1503  1507     9 
 1502  1501  1503  1504     9 
 1502  1501  1503  1507     9 
 1501  1503  1504  1505     9 
 1501  1503  1504  1506     9 
 1507  1503  1504  1505     9 
 1507  1503  1504  1506     9 
 1501  1503  1507  1508     9 
 1504  1503  1507  1508     9 
 1503  1507  1508  1494     9 
 1503  1507  1508  1498     9 
 1489  1509  1511  1492     9 
 1489  1509  1511  1512     9 
 1489  1509  1511  1513     9 
 1510  1509  1511  1492     9 
 1510  1509  1511  1512     9 
 1510  1509  1511  1513     9 
 1514  1509  1511  1492     9 
 1514  1509  1511  1512     9 
 1514  1509  1511  1513     9 
 1489  1509  1514  1515     9 
 1510  1509  1514  1515     9 
 1511  1509  1514  1515     9 
 1509  1514  1515  1516     9 
 1509  1514  1515  1517     9 
 1509  1514  1515  1518     9 
 1514  1515  1518  1519     9 
 1516  1515  1518  1519     9 
 1517  1515  1518  1519     9 
 1515  1518  1519  1520     9 
 1515  1518  1519  1521     9 
 1515  1518  1519  1522     9 
 1518  1519  1522  1523     9 
 1518  1519  1522  1524     9 
 1518  1519  1522  1541     9 
 1520  1519  1522  1523     9 
 1520  1519  1522  1524     9 
 1520  1519  1522  1541     9 
 1521  1519  1522  1523     9 
 1521  1519  1522  1524     9 
 1521  1519  1522  1541     9 
 1519  1522  1524  1525     9 
 1523  1522  1524  1525     9 
 1541  1522  1524  1525     9 
 1519  1522  1541  1542     9 
 1519  1522  1541  1543     9 
 1519  1522  1541  1546     9 
 1523  1522  1541  1542     9 
 1523  1522  1541  1543     9 
 1523  1522  1541  1546     9 
 1524  1522  1541  1542     9 
 1524  1522  1541  1543     9 
 1524  1522  1541  1546     9 
 1522  1524  1525  1526     9 
 1522  1524  1525  1527     9 
 1522  1524  1525  1543     9 
 1524  1525  1527  1528     9 
 1524  1525  1527  1540     9 
 1526  1525  1527  1528     9 
 1526  1525  1527  1540     9 
 1543  1525  1527  1528     9 
 1543  1525  1527  1540     9 
 1524  1525  1543  1541     9 
 1524  1525  1543  1544     9 
 1524  1525  1543  1545     9 
 1526  1525  1543  1541     9 
 1526  1525  1543  1544     9 
 1526  1525  1543  1545     9 
 1527  1525  1543  1541     9 
 1527  1525  1543  1544     9 
 1527  1525  1543  1545     9 
 1525  1527  1528  1529     9 
 1525  1527  1528  1530     9 
 1540  1527  1528  1529     9 
 1540  1527  1528  1530     9 
 1525  1527  1540  1531     9 
 1525  1527  1540  1539     9 
 1528  1527  1540  1531     9 
 1528  1527  1540  1539     9 
 1527  1528  1530  1531     9 
 1529  1528  1530  1531     9 
 1528  1530  1531  1532     9 
 1528  1530  1531  1540     9 
 1530  1531  1532  1533     9 
 1530  1531  1532  1536     9 
 1540  1531  1532  1533     9 
 1540  1531  1532  1536     9 
 1530  1531  1540  1527     9 
 1530  1531  1540  1539     9 
 1532  1531  1540  1527     9 
 1532  1531  1540  1539     9 
 1531  1532  1533  1534     9 
 1531  1532  1533  1535     9 
 1536  1532  1533  1534     9 
 1536  1532  1533  1535     9 
 1531  1532  1536  1537     9 
 1533  1532  1536  1537     9 
 1532  1536  1537  1538     9 
 1532  1536  1537  1539     9 
 1536  1537  1539  1540     9 
 1538  1537  1539  1540     9 
 1537  1539  1540  1527     9 
 1537  1539  1540  1531     9 
 1522  1541  1543  1525     9 
 1522  1541  1543  1544     9 
 1522  1541  1543  1545     9 
 1542  1541  1543  1525     9 
 1542  1541  1543  1544     9 
 1542  1541  1543  1545     9 
 1546  1541  1543  1525     9 
 1546  1541  1543  1544     9 
 1546  1541  1543  1545     9 
 1522  1541  1546  1547     9 
 1542  1541  1546  1547     9 
 1543  1541  1546  1547     9 
 1541  1546  1547  1548     9 
 1541  1546  1547  1549     9 
 1541  1546  1547  1550     9 
 1546  1547  1550  1551     9 
 1548  1547  1550  1551     9 
 1549  1547  1550  1551     9 
 1547  1550  1551  1552     9 
 1547  1550  1551  1553     9 
 1547  1550  1551  1554     9 
 1550  1551  1554  1555     9 
 1550  1551  1554  1556     9 
 1550  1551  1554  1573     9 
 1552  1551  1554  1555     9 
 1552  1551  1554  1556     9 
 1552  1551  1554  1573     9 
 1553  1551  1554  1555     9 
 1553  1551  1554  1556     9 
 1553  1551  1554  1573     9 
 1551  1554  1556  1557     9 
 1555  1554  1556  1557     9 
 1573  1554  1556  1557     9 
 1551  1554  1573  1574     9 
 1551  1554  1573  1575     9 
 1551  1554  1573  1578     9 
 1555  1554  1573  1574     9 
 1555  1554  1573  1575     9 
 1555  1554  1573  1578     9 
 1556  1554  1573  1574     9 
 1556  1554  1573  1575     9 
 1556  1554  1573  1578     9 
 1554  1556  1557  1558     9 
 1554  1556  1557  1559     9 
 1554  1556  1557  1575     9 
 1556  1557  1559  1560     9 
 1556  1557  1559  1572     9 
 1558  1557  1559  1560     9 
 1558  1557  1559  1572     9 
 1575  1557  1559  1560     9 
 1575  1557  1559  1572     9 
 1556  1557  1575  1573     9 
 1556  1557  1575  1576     9 
 1556  1557  1575  1577     9 
 1558  1557  1575  1573     9 
 1558  1557  1575  1576     9 
 1558  1557  1575  1577     9 
 1559  1557  1575  1573     9 
 1559  1557  1575  1576     9 
 1559  1557  1575  1577     9 
 1557  1559  1560  1561     9 
 1557  1559  1560  1562     9 
 1572  1559  1560  1561     9 
 1572  1559  1560  1562     9 
 1557  1559  1572  1563     9 
 1557  1559  1572  1571     9 
 1560  1559  1572  1563     9 
 1560  1559  1572  1571     9 
 1559  1560  1562  1563     9 
 1561  1560  1562  1563     9 
 1560  1562  1563  1564     9 
 1560  1562  1563  1572     9 
 1562  1563  1564  1565     9 
 1562  1563  1564  1568     9 
 1572  1563  1564  1565     9 
 1572  1563  1564  1568     9 
 1562  1563  1572  1559     9 
 1562  1563  1572  1571     9 
 1564  1563  1572  1559     9 
 1564  1563  1572  1571     9 
 1563  1564  1565  1566     9 
 1563  1564  1565  1567     9 
 1568  1564  1565  1566     9 
 1568  1564  1565  1567     9 
 1563  1564  1568  1569     9 
 1565  1564  1568  1569     9 
 1564  1568  1569  1570     9 
 1564  1568  1569  1571     9 
 1568  1569  1571  1572     9 
 1570  1569  1571  1572     9 
 1569  1571  1572  1559     9 
 1569  1571  1572  1563     9 
 1554  1573  1575  1557     9 
 1554  1573  1575  1576     9 
 1554  1573  1575  1577     9 
 1574  1573  1575  1557     9 
 1574  1573  1575  1576     9 
 1574  1573  1575  1577     9 
 1578  1573  1575  1557     9 
 1578  1573  1575  1576     9 
 1578  1573  1575  1577     9 
 1554  1573  1578  1579     9 
 1574  1573  1578  1579     9 
 1575  1573  1578  1579     9 
 1573  1578  1579  1580     9 
 1573  1578  1579  1581     9 
 1573  1578  1579  1582     9 
 1578  1579  1582  1583     9 
 1580  1579  1582  1583     9 
 1581  1579  1582  1583     9 
 1579  1582  1583  1584     9 
 1579  1582  1583  1585     9 
 1579  1582  1583  1586     9 
 1582  1583  1586  1587     9 
 1582  1583  1586  1588     9 
 1582  1583  1586  1606     9 
 1584  1583  1586  1587     9 
 1584  1583  1586  1588     9 
 1584  1583  1586  1606     9 
 1585  1583  1586  1587     9 
 1585  1583  1586  1588     9 
 1585  1583  1586  1606     9 
 1583  1586  1588  1589     9 
 1587  1586  1588  1589     9 
 1606  1586  1588  1589     9 
 1583  1586  1606  1607     9 
 1583  1586  1606  1608     9 
 1583  1586  1606  1611     9 
 1587  1586  1606  1607     9 
 1587  1586  1606  1608     9 
 1587  1586  1606  1611     9 
 1588  1586  1606  1607     9 
 1588  1586  1606  1608     9 
 1588  1586  1606  1611     9 
 1586  1588  1589  1590     9 
 1586  1588  1589  1591     9 
 1586  1588  1589  1608     9 
 1588  1589  1591  1592     9 
 1588  1589  1591  1605     9 
 1590  1589  1591  1592     9 
 1590  1589  1591  1605     9 
 1608  1589  1591  1592     9 
 1608  1589  1591  1605     9 
 1588  1589  1608  1606     9 
 1588  1589  1608  1609     9 
 1588  1589  1608  1610     9 
 1590  1589  1608  1606     9 
 1590  1589  1608  1609     9 
 1590  1589  1608  1610     9 
 1591  1589  1608  1606     9 
 1591  1589  1608  1609     9 
 1591  1589  1608  1610     9 
 1589  1591  1592  1593     9 
 1589  1591  1592  1594     9 
 1605  1591  1592  1593     9 
 1605  1591  1592  1594     9 
 1589  1591  1605  1595     9 
 1589  1591  1605  1604     9 
 1592  1591  1605  1595     9 
 1592  1591  1605  1604     9 
 1591  1592  1594  1595     9 
 1593  1592  1594  1595     9 
 1592  1594  1595  1596     9 
 1592  1594  1595  1605     9 
 1594  1595  1596  1597     9 
 1594  1595  1596  1598     9 
 1605  1595  1596  1597     9 
 1605  1595  1596  1598     9 
 1594  1595  1605  1591     9 
 1594  1595  1605  1604     9 
 1596  1595  1605  1591     9 
 1596  1595  1605  1604     9 
 1595  1596  1598  1599     9 
 1595  1596  1598  1600     9 
 1597  1596  1598  1599     9 
 1597  1596  1598  1600     9 
 1596  1598  1600  1601     9 
 1596  1598  1600  1604     9 
 1599  1598  1600  1601     9 
 1599  1598  1600  1604     9 
 1598  1600  1601  1602     9 
 1598  1600  1601  1603     9 
 1604  1600  1601  1602     9 
 1604  1600  1601  1603     9 
 1598  1600  1604  1605     9 
 1601  1600  1604  1605     9 
 1600  1604  1605  1591     9 
 1600  1604  1605  1595     9 
 1586  1606  1608  1589     9 
 1586  1606  1608  1609     9 
 1586  1606  1608  1610     9 
 1607  1606  1608  1589     9 
 1607  1606  1608  1609     9 
 1607  1606  1608  1610     9 
 1611  1606  1608  1589     9 
 1611  1606  1608  1609     9 
 1611  1606  1608  1610     9 
 1586  1606  1611  1612     9 
 1607  1606  1611  1612     9 
 1608  1606  1611  1612     9 
 1606  1611  1612  1613     9 
 1606  1611  1612  1614     9 
 1606  1611  1612  1615     9 
 1611  1612  1615  1616     9 
 1613  1612  1615  1616     9 
 1614  1612  1615  1616     9 
 1612  1615  1616  1617     9 
 1612  1615  1616  1618     9 
 1612  1615  1616  1619     9 
 1615  1616  1619  1620     9 
 1615  1616  1619  1621     9 
 1615  1616  1619  1639     9 
 1617  1616  1619  1620     9 
 1617  1616  1619  1621     9 
 1617  1616  1619  1639     9 
 1618  1616  1619  1620     9 
 1618  1616  1619  1621     9 
 1618  1616  1619  1639     9 
 1616  1619  1621  1622     9 
 1620  1619  1621  1622     9 
 1639  1619  1621  1622     9 
 1616  1619  1639  1640     9 
 1616  1619  1639  1641     9 
 1616  1619  1639  1644     9 
 1620  1619  1639  1640     9 
 1620  1619  1639  1641     9 
 1620  1619  1639  1644     9 
 1621  1619  1639  1640     9 
 1621  1619  1639  1641     9 
 1621  1619  1639  1644     9 
 1619  1621  1622  1623     9 
 1619  1621  1622  1624     9 
 1619  1621  1622  1641     9 
 1621  1622  1624  1625     9 
 1621  1622  1624  1638     9 
 1623  1622  1624  1625     9 
 1623  1622  1624  1638     9 
 1641  1622  1624  1625     9 
 1641  1622  1624  1638     9 
 1621  1622  1641  1639     9 
 1621  1622  1641  1642     9 
 1621  1622  1641  1643     9 
 1623  1622  1641  1639     9 
 1623  1622  1641  1642     9 
 1623  1622  1641  1643     9 
 1624  1622  1641  1639     9 
 1624  1622  1641  1642     9 
 1624  1622  1641  1643     9 
 1622  1624  1625  1626     9 
 1622  1624  1625  1627     9 
 1638  1624  1625  1626     9 
 1638  1624  1625  1627     9 
 1622  1624  1638  1628     9 
 1622  1624  1638  1637     9 
 1625  1624  1638  1628     9 
 1625  1624  1638  1637     9 
 1624  1625  1627  1628     9 
 1626  1625  1627  1628     9 
 1625  1627  1628  1629     9 
 1625  1627  1628  1638     9 
 1627  1628  1629  1630     9 
 1627  1628  1629  1631     9 
 1638  1628  1629  1630     9 
 1638  1628  1629  1631     9 
 1627  1628  1638  1624     9 
 1627  1628  1638  1637     9 
 1629  1628  1638  1624     9 
 1629  1628  1638  1637     9 
 1628  1629  1631  1632     9 
 1628  1629  1631  1633     9 
 1630  1629  1631  1632     9 
 1630  1629  1631  1633     9 
 1629  1631  1633  1634     9 
 1629  1631  1633  1637     9 
 1632  1631  1633  1634     9 
 1632  1631  1633  1637     9 
 1631  1633  1634  1635     9 
 1631  1633  1634  1636     9 
 1637  1633  1634  1635     9 
 1637  1633  1634  1636     9 
 1631  1633  1637  1638     9 
 1634  1633  1637  1638     9 
 1633  1637  1638  1624     9 
 1633  1637  1638  1628     9 
 1619  1639  1641  1622     9 
 1619  1639  1641  1642     9 
 1619  1639  1641  1643     9 
 1640  1639  1641  1622     9 
 1640  1639  1641  1642     9 
 1640  1639  1641  1643     9 
 1644  1639  1641  1622     9 
 1644  1639  1641  1642     9 
 1644  1639  1641  1643     9 
 1619  1639  1644  1645     9 
 1640  1639  1644  1645     9 
 1641  1639  1644  1645     9 
 1639  1644  1645  1646     9 
 1639  1644  1645  1647     9 
 1639  1644  1645  1648     9 
 1644  1645  1648  1649     9 
 1646  1645  1648  1649     9 
 1647  1645  1648  1649     9 
 1645  1648  1649  1650     9 
 1645  1648  1649  1651     9 
 1645  1648  1649  1652     9 
 1648  1649  1652  1653     9 
 1648  1649  1652  1654     9 
 1648  1649  1652  1669     9 
 1650  1649  1652  1653     9 
 1650  1649  1652  1654     9 
 1650  1649  1652  1669     9 
 1651  1649  1652  1653     9 
 1651  1649  1652  1654     9 
 1651  1649  1652  1669     9 
 1649  1652  1654  1655     9 
 1653  1652  1654  1655     9 
 1669  1652  1654  1655     9 
 1649  1652  1669  1670     9 
 1649  1652  1669  1671     9 
 1649  1652  1669  1674     9 
 1653  1652  1669  1670     9 
 1653  1652  1669  1671     9 
 1653  1652  1669  1674     9 
 1654  1652  1669  1670     9 
 1654  1652  1669  1671     9 
 1654  1652  1669  1674     9 
 1652  1654  1655  1656     9 
 1652  1654  1655  1657     9 
 1652  1654  1655  1671     9 
 1654  1655  1657  1658     9 
 1654  1655  1657  1667     9 
 1656  1655  1657  1658     9 
 1656  1655  1657  1667     9 
 1671  1655  1657  1658     9 
 1671  1655  1657  1667     9 
 1654  1655  1671  1669     9 
 1654  1655  1671  1672     9 
 1654  1655  1671  1673     9 
 1656  1655  1671  1669     9 
 1656  1655  1671  1672     9 
 1656  1655  1671  1673     9 
 1657  1655  1671  1669     9 
 1657  1655  1671  1672     9 
 1657  1655  1671  1673     9 
 1655  1657  1658  1659     9 
 1655  1657  1658  1660     9 
 1667  1657  1658  1659     9 
 1667  1657  1658  1660     9 
 1655  1657  1667  1666     9 
 1655  1657  1667  1668     9 
 1658  1657  1667  1666     9 
 1658  1657  1667  1668     9 
 1657  1658  1660  1661     9 
 1657  1658  1660  1662     9 
 1659  1658  1660  1661     9 
 1659  1658  1660  1662     9 
 1658  1660  1662  1663     9 
 1658  1660  1662  1666     9 
 1661  1660  1662  1663     9 
 1661  1660  1662  1666     9 
 1660  1662  1663  1664     9 
 1660  1662  1663  1665     9 
 1666  1662  1663  1664     9 
 1666  1662  1663  1665     9 
 1660  1662  1666  1667     9 
 1663  1662  1666  1667     9 
 1662  1666  1667  1657     9 
 1662  1666  1667  1668     9 
 1652  1669  1671  1655     9 
 1652  1669  1671  1672     9 
 1652  1669  1671  1673     9 
 1670  1669  1671  1655     9 
 1670  1669  1671  1672     9 
 1670  1669  1671  1673     9 
 1674  1669  1671  1655     9 
 1674  1669  1671  1672     9 
 1674  1669  1671  1673     9 
 1652  1669  1674  1675     9 
 1670  1669  1674  1675     9 
 1671  1669  1674  1675     9 
 1669  1674  1675  1676     9 
 1669  1674  1675  1677     9 
 1669  1674  1675  1678     9 
 1674  1675  1678  1679     9 
 1676  1675  1678  1679     9 
 1677  1675  1678  1679     9 
 1675  1678  1679  1680     9 
 1675  1678  1679  1681     9 
 1675  1678  1679  1682     9 
 1678  1679  1682  1683     9 
 1678  1679  1682  1684     9 
 1678  1679  1682  1702     9 
 1680  1679  1682  1683     9 
 1680  1679  1682  1684     9 
 1680  1679  1682  1702     9 
 1681  1679  1682  1683     9 
 1681  1679  1682  1684     9 
 1681  1679  1682  1702     9 
 1679  1682  1684  1685     9 
 1683  1682  1684  1685     9 
 1702  1682  1684  1685     9 
 1679  1682  1702  1703     9 
 1679  1682  1702  1704     9 
 1679  1682  1702  1707     9 
 1683  1682  1702  1703     9 
 1683  1682  1702  1704     9 
 1683  1682  1702  1707     9 
 1684  1682  1702  1703     9 
 1684  1682  1702  1704     9 
 1684  1682  1702  1707     9 
 1682  1684  1685  1686     9 
 1682  1684  1685  1687     9 
 1682  1684  1685  1704     9 
 1684  1685  1687  1688     9 
 1684  1685  1687  1701     9 
 1686  1685  1687  1688     9 
 1686  1685  1687  1701     9 
 1704  1685  1687  1688     9 
 1704  1685  1687  1701     9 
 1684  1685  1704  1702     9 
 1684  1685  1704  1705     9 
 1684  1685  1704  1706     9 
 1686  1685  1704  1702     9 
 1686  1685  1704  1705     9 
 1686  1685  1704  1706     9 
 1687  1685  1704  1702     9 
 1687  1685  1704  1705     9 
 1687  1685  1704  1706     9 
 1685  1687  1688  1689     9 
 1685  1687  1688  1690     9 
 1701  1687  1688  1689     9 
 1701  1687  1688  1690     9 
 1685  1687  1701  1691     9 
 1685  1687  1701  1700     9 
 1688  1687  1701  1691     9 
 1688  1687  1701  1700     9 
 1687  1688  1690  1691     9 
 1689  1688  1690  1691     9 
 1688  1690  1691  1692     9 
 1688  1690  1691  1701     9 
 1690  1691  1692  1693     9 
 1690  1691  1692  1694     9 
 1701  1691  1692  1693     9 
 1701  1691  1692  1694     9 
 1690  1691  1701  1687     9 
 1690  1691  1701  1700     9 
 1692  1691  1701  1687     9 
 1692  1691  1701  1700     9 
 1691  1692  1694  1695     9 
 1691  1692  1694  1696     9 
 1693  1692  1694  1695     9 
 1693  1692  1694  1696     9 
 1692  1694  1696  1697     9 
 1692  1694  1696  1700     9 
 1695  1694  1696  1697     9 
 1695  1694  1696  1700     9 
 1694  1696  1697  1698     9 
 1694  1696  1697  1699     9 
 1700  1696  1697  1698     9 
 1700  1696  1697  1699     9 
 1694  1696  1700  1701     9 
 1697  1696  1700  1701     9 
 1696  1700  1701  1687     9 
 1696  1700  1701  1691     9 
 1682  1702  1704  1685     9 
 1682  1702  1704  1705     9 
 1682  1702  1704  1706     9 
 1703  1702  1704  1685     9 
 1703  1702  1704  1705     9 
 1703  1702  1704  1706     9 
 1707  1702  1704  1685     9 
 1707  1702  1704  1705     9 
 1707  1702  1704  1706     9 
 1682  1702  1707  1708     9 
 1703  1702  1707  1708     9 
 1704  1702  1707  1708     9 
 1702  1707  1708  1709     9 
 1702  1707  1708  1710     9 
 1702  1707  1708  1711     9 
 1707  1708  1711  1712     9 
 1709  1708  1711  1712     9 
 1710  1708  1711  1712     9 
 1708  1711  1712  1713     9 
 1708  1711  1712  1714     9 
 1708  1711  1712  1715     9 
 1711  1712  1715  1716     9 
 1711  1712  1715  1717     9 
 1711  1712  1715  1735     9 
 1713  1712  1715  1716     9 
 1713  1712  1715  1717     9 
 1713  1712  1715  1735     9 
 1714  1712  1715  1716     9 
 1714  1712  1715  1717     9 
 1714  1712  1715  1735     9 
 1712  1715  1717  1718     9 
 1716  1715  1717  1718     9 
 1735  1715  1717  1718     9 
 1712  1715  1735  1736     9 
 1712  1715  1735  1737     9 
 1712  1715  1735  1740     9 
 1716  1715  1735  1736     9 
 1716  1715  1735  1737     9 
 1716  1715  1735  1740     9 
 1717  1715  1735  1736     9 
 1717  1715  1735  1737     9 
 1717  1715  1735  1740     9 
 1715  1717  1718  1719     9 
 1715  1717  1718  1720     9 
 1715  1717  1718  1737     9 
 1717  1718  1720  1721     9 
 1717  1718  1720  1734     9 
 1719  1718  1720  1721     9 
 1719  1718  1720  1734     9 
 1737  1718  1720  1721     9 
 1737  1718  1720  1734     9 
 1717  1718  1737  1735     9 
 1717  1718  1737  1738     9 
 1717  1718  1737  1739     9 
 1719  1718  1737  1735     9 
 1719  1718  1737  1738     9 
 1719  1718  1737  1739     9 
 1720  1718  1737  1735     9 
 1720  1718  1737  1738     9 
 1720  1718  1737  1739     9 
 1718  1720  1721  1722     9 
 1718  1720  1721  1723     9 
 1734  1720  1721  1722     9 
 1734  1720  1721  1723     9 
 1718  1720  1734  1724     9 
 1718  1720  1734  1733     9 
 1721  1720  1734  1724     9 
 1721  1720  1734  1733     9 
 1720  1721  1723  1724     9 
 1722  1721  1723  1724     9 
 1721  1723  1724  1725     9 
 1721  1723  1724  1734     9 
 1723  1724  1725  1726     9 
 1723  1724  1725  1727     9 
 1734  1724  1725  1726     9 
 1734  1724  1725  1727     9 
 1723  1724  1734  1720     9 
 1723  1724  1734  1733     9 
 1725  1724  1734  1720     9 
 1725  1724  1734  1733     9 
 1724  1725  1727  1728     9 
 1724  1725  1727  1729     9 
 1726  1725  1727  1728     9 
 1726  1725  1727  1729     9 
 1725  1727  1729  1730     9 
 1725  1727  1729  1733     9 
 1728  1727  1729  1730     9 
 1728  1727  1729  1733     9 
 1727  1729  1730  1731     9 
 1727  1729  1730  1732     9 
 1733  1729  1730  1731     9 
 1733  1729  1730  1732     9 
 1727  1729  1733  1734     9 
 1730  1729  1733  1734     9 
 1729  1733  1734  1720     9 
 1729  1733  1734  1724     9 
 1715  1735  1737  1718     9 
 1715  1735  1737  1738     9 
 1715  1735  1737  1739     9 
 1736  1735  1737  1718     9 
 1736  1735  1737  1738     9 
 1736  1735  1737  1739     9 
 1740  1735  1737  1718     9 
 1740  1735  1737  1738     9 
 1740  1735  1737  1739     9 
 1715  1735  1740  1741     9 
 1736  1735  1740  1741     9 
 1737  1735  1740  1741     9 
 1735  1740  1741  1742     9 
 1735  1740  1741  1743     9 
 1735  1740  1741  1744     9 
 1740  1741  1744  1745     9 
 1742  1741  1744  1745     9 
 1743  1741  1744  1745     9 
 1741  1744  1745  1746     9 
 1741  1744  1745  1747     9 
 1741  1744  1745  1748     9 
 1744  1745  1748  1749     9 
 1744  1745  1748  1750     9 
 1744  1745  1748  1765     9 
 1746  1745  1748  1749     9 
 1746  1745  1748  1750     9 
 1746  1745  1748  1765     9 
 1747  1745  1748  1749     9 
 1747  1745  1748  1750     9 
 1747  1745  1748  1765     9 
 1745  1748  1750  1751     9 
 1749  1748  1750  1751     9 
 1765  1748  1750  1751     9 
 1745  1748  1765  1766     9 
 1745  1748  1765  1767     9 
 1745  1748  1765  1770     9 
 1749  1748  1765  1766     9 
 1749  1748  1765  1767     9 
 1749  1748  1765  1770     9 
 1750  1748  1765  1766     9 
 1750  1748  1765  1767     9 
 1750  1748  1765  1770     9 
 1748  1750  1751  1752     9 
 1748  1750  1751  1753     9 
 1748  1750  1751  1767     9 
 1750  1751  1753  1754     9 
 1750  1751  1753  1763     9 
 1752  1751  1753  1754     9 
 1752  1751  1753  1763     9 
 1767  1751  1753  1754     9 
 1767  1751  1753  1763     9 
 1750  1751  1767  1765     9 
 1750  1751  1767  1768     9 
 1750  1751  1767  1769     9 
 1752  1751  1767  1765     9 
 1752  1751  1767  1768     9 
 1752  1751  1767  1769     9 
 1753  1751  1767  1765     9 
 1753  1751  1767  1768     9 
 1753  1751  1767  1769     9 
 1751  1753  1754  1755     9 
 1751  1753  1754  1756     9 
 1763  1753  1754  1755     9 
 1763  1753  1754  1756     9 
 1751  1753  1763  1762     9 
 1751  1753  1763  1764     9 
 1754  1753  1763  1762     9 
 1754  1753  1763  1764     9 
 1753  1754  1756  1757     9 
 1753  1754  1756  1758     9 
 1755  1754  1756  1757     9 
 1755  1754  1756  1758     9 
 1754  1756  1758  1759     9 
 1754  1756  1758  1762     9 
 1757  1756  1758  1759     9 
 1757  1756  1758  1762     9 
 1756  1758  1759  1760     9 
 1756  1758  1759  1761     9 
 1762  1758  1759  1760     9 
 1762  1758  1759  1761     9 
 1756  1758  1762  1763     9 
 1759  1758  1762  1763     9 
 1758  1762  1763  1753     9 
 1758  1762  1763  1764     9 
 1748  1765  1767  1751     9 
 1748  1765  1767  1768     9 
 1748  1765  1767  1769     9 
 1766  1765  1767  1751     9 
 1766  1765  1767  1768     9 
 1766  1765  1767  1769     9 
 1770  1765  1767  1751     9 
 1770  1765  1767  1768     9 
 1770  1765  1767  1769     9 
 1748  1765  1770  1771     9 
 1766  1765  1770  1771     9 
 1767  1765  1770  1771     9 
 1765  1770  1771  1772     9 
 1765  1770  1771  1773     9 
 1765  1770  1771  1774     9 
 1770  1771  1774  1775     9 
 1772  1771  1774  1775     9 
 1773  1771  1774  1775     9 
 1771  1774  1775  1776     9 
 1771  1774  1775  1777     9 
 1771  1774  1775  1778     9 
 1774  1775  1778  1779     9 
 1774  1775  1778  1780     9 
 1774  1775  1778  1798     9 
 1776  1775  1778  1779     9 
 1776  1775  1778  1780     9 
 1776  1775  1778  1798     9 
 1777  1775  1778  1779     9 
 1777  1775  1778  1780     9 
 1777  1775  1778  1798     9 
 1775  1778  1780  1781     9 
 1779  1778  1780  1781     9 
 1798  1778  1780  1781     9 
 1775  1778  1798  1799     9 
 1775  1778  1798  1800     9 
 1775  1778  1798  1803     9 
 1779  1778  1798  1799     9 
 1779  1778  1798  1800     9 
 1779  1778  1798  1803     9 
 1780  1778  1798  1799     9 
 1780  1778  1798  1800     9 
 1780  1778  1798  1803     9 
 1778  1780  1781  1782     9 
 1778  1780  1781  1783     9 
 1778  1780  1781  1800     9 
 1780  1781  1783  1784     9 
 1780  1781  1783  1797     9 
 1782  1781  1783  1784     9 
 1782  1781  1783  1797     9 
 1800  1781  1783  1784     9 
 1800  1781  1783  1797     9 
 1780  1781  1800  1798     9 
 1780  1781  1800  1801     9 
 1780  1781  1800  1802     9 
 1782  1781  1800  1798     9 
 1782  1781  1800  1801     9 
 1782  1781  1800  1802     9 
 1783  1781  1800  1798     9 
 1783  1781  1800  1801     9 
 1783  1781  1800  1802     9 
 1781  1783  1784  1785     9 
 1781  1783  1784  1786     9 
 1797  1783  1784  1785     9 
 1797  1783  1784  1786     9 
 1781  1783  1797  1787     9 
 1781  1783  1797  1796     9 
 1784  1783  1797  1787     9 
 1784  1783  1797  1796     9 
 1783  1784  1786  1787     9 
 1785  1784  1786  1787     9 
 1784  1786  1787  1788     9 
 1784  1786  1787  1797     9 
 1786  1787  1788  1789     9 
 1786  1787  1788  1790     9 
 1797  1787  1788  1789     9 
 1797  1787  1788  1790     9 
 1786  1787  1797  1783     9 
 1786  1787  1797  1796     9 
 1788  1787  1797  1783     9 
 1788  1787  1797  1796     9 
 1787  1788  1790  1791     9 
 1787  1788  1790  1792     9 
 1789  1788  1790  1791     9 
 1789  1788  1790  1792     9 
 1788  1790  1792  1793     9 
 1788  1790  1792  1796     9 
 1791  1790  1792  1793     9 
 1791  1790  1792  1796     9 
 1790  1792  1793  1794     9 
 1790  1792  1793  1795     9 
 1796  1792  1793  1794     9 
 1796  1792  1793  1795     9 
 1790  1792  1796  1797     9 
 1793  1792  1796  1797     9 
 1792  1796  1797  1783     9 
 1792  1796  1797  1787     9 
 1778  1798  1800  1781     9 
 1778  1798  1800  1801     9 
 1778  1798  1800  1802     9 
 1799  1798  1800  1781     9 
 1799  1798  1800  1801     9 
 1799  1798  1800  1802     9 
 1803  1798  1800  1781     9 
 1803  1798  1800  1801     9 
 1803  1798  1800  1802     9 
 1778  1798  1803  1804     9 
 1799  1798  1803  1804     9 
 1800  1798  1803  1804     9 
 1798  1803  1804  1805     9 
 1798  1803  1804  1806     9 
 1798  1803  1804  1807     9 
 1803  1804  1807  1808     9 
 1805  1804  1807  1808     9 
 1806  1804  1807  1808     9 
 1804  1807  1808  1809     9 
 1804  1807  1808  1810     9 
 1804  1807  1808  1811     9 
 1807  1808  1811  1812     9 
 1807  1808  1811  1813     9 
 1807  1808  1811  1831     9 
 1809  1808  1811  1812     9 
 1809  1808  1811  1813     9 
 1809  1808  1811  1831     9 
 1810  1808  1811  1812     9 
 1810  1808  1811  1813     9 
 1810  1808  1811  1831     9 
 1808  1811  1813  1814     9 
 1812  1811  1813  1814     9 
 1831  1811  1813  1814     9 
 1808  1811  1831  1832     9 
 1808  1811  1831  1833     9 
 1808  1811  1831  1836     9 
 1812  1811  1831  1832     9 
 1812  1811  1831  1833     9 
 1812  1811  1831  1836     9 
 1813  1811  1831  1832     9 
 1813  1811  1831  1833     9 
 1813  1811  1831  1836     9 
 1811  1813  1814  1815     9 
 1811  1813  1814  1816     9 
 1811  1813  1814  1833     9 
 1813  1814  1816  1817     9 
 1813  1814  1816  1830     9 
 1815  1814  1816  1817     9 
 1815  1814  1816  1830     9 
 1833  1814  1816  1817     9 
 1833  1814  1816  1830     9 
 1813  1814  1833  1831     9 
 1813  1814  1833  1834     9 
 1813  1814  1833  1835     9 
 1815  1814  1833  1831     9 
 1815  1814  1833  1834     9 
 1815  1814  1833  1835     9 
 1816  1814  1833  1831     9 
 1816  1814  1833  1834     9 
 1816  1814  1833  1835     9 
 1814  1816  1817  1818     9 
 1814  1816  1817  1819     9 
 1830  1816  1817  1818     9 
 1830  1816  1817  1819     9 
 1814  1816  1830  1820     9 
 1814  1816  1830  1829     9 
 1817  1816  1830  1820     9 
 1817  1816  1830  1829     9 
 1816  1817  1819  1820     9 
 1818  1817  1819  1820     9 
 1817  1819  1820  1821     9 
 1817  1819  1820  1830     9 
 1819  1820  1821  1822     9 
 1819  1820  1821  1823     9 
 1830  1820  1821  1822     9 
 1830  1820  1821  1823     9 
 1819  1820  1830  1816     9 
 1819  1820  1830  1829     9 
 1821  1820  1830  1816     9 
 1821  1820  1830  1829     9 
 1820  1821  1823  1824     9 
 1820  1821  1823  1825     9 
 1822  1821  1823  1824     9 
 1822  1821  1823  1825     9 
 1821  1823  1825  1826     9 
 1821  1823  1825  1829     9 
 1824  1823  1825  1826     9 
 1824  1823  1825  1829     9 
 1823  1825  1826  1827     9 
 1823  1825  1826  1828     9 
 1829  1825  1826  1827     9 
 1829  1825  1826  1828     9 
 1823  1825  1829  1830     9 
 1826  1825  1829  1830     9 
 1825  1829  1830  1816     9 
 1825  1829  1830  1820     9 
 1811  1831  1833  1814     9 
 1811  1831  1833  1834     9 
 1811  1831  1833  1835     9 
 1832  1831  1833  1814     9 
 1832  1831  1833  1834     9 
 1832  1831  1833  1835     9 
 1836  1831  1833  1814     9 
 1836  1831  1833  1834     9 
 1836  1831  1833  1835     9 
 1811  1831  1836  1837     9 
 1832  1831  1836  1837     9 
 1833  1831  1836  1837     9 
 1831  1836  1837  1838     9 
 1831  1836  1837  1839     9 
 1831  1836  1837  1840     9 
 1836  1837  1840  1841     9 
 1838  1837  1840  1841     9 
 1839  1837  1840  1841     9 
 1837  1840  1841  1842     9 
 1837  1840  1841  1843     9 
 1837  1840  1841  1844     9 
 1840  1841  1844  1845     9 
 1840  1841  1844  1846     9 
 1840  1841  1844  1861     9 
 1842  1841  1844  1845     9 
 1842  1841  1844  1846     9 
 1842  1841  1844  1861     9 
 1843  1841  1844  1845     9 
 1843  1841  1844  1846     9 
 1843  1841  1844  1861     9 
 1841  1844  1846  1847     9 
 1845  1844  1846  1847     9 
 1861  1844  1846  1847     9 
 1841  1844  1861  1862     9 
 1841  1844  1861  1863     9 
 1841  1844  1861  1866     9 
 1845  1844  1861  1862     9 
 1845  1844  1861  1863     9 
 1845  1844  1861  1866     9 
 1846  1844  1861  1862     9 
 1846  1844  1861  1863     9 
 1846  1844  1861  1866     9 
 1844  1846  1847  1848     9 
 1844  1846  1847  1849     9 
 1844  1846  1847  1863     9 
 1846  1847  1849  1850     9 
 1846  1847  1849  1859     9 
 1848  1847  1849  1850     9 
 1848  1847  1849  1859     9 
 1863  1847  1849  1850     9 
 1863  1847  1849  1859     9 
 1846  1847  1863  1861     9 
 1846  1847  1863  1864     9 
 1846  1847  1863  1865     9 
 1848  1847  1863  1861     9 
 1848  1847  1863  1864     9 
 1848  1847  1863  1865     9 
 1849  1847  1863  1861     9 
 1849  1847  1863  1864     9 
 1849  1847  1863  1865     9 
 1847  1849  1850  1851     9 
 1847  1849  1850  1852     9 
 1859  1849  1850  1851     9 
 1859  1849  1850  1852     9 
 1847  1849  1859  1858     9 
 1847  1849  1859  1860     9 
 1850  1849  1859  1858     9 
 1850  1849  1859  1860     9 
 1849  1850  1852  1853     9 
 1849  1850  1852  1854     9 
 1851  1850  1852  1853     9 
 1851  1850  1852  1854     9 
 1850  1852  1854  1855     9 
 1850  1852  1854  1858     9 
 1853  1852  1854  1855     9 
 1853  1852  1854  1858     9 
 1852  1854  1855  1856     9 
 1852  1854  1855  1857     9 
 1858  1854  1855  1856     9 
 1858  1854  1855  1857     9 
 1852  1854  1858  1859     9 
 1855  1854  1858  1859     9 
 1854  1858  1859  1849     9 
 1854  1858  1859  1860     9 
 1844  1861  1863  1847     9 
 1844  1861  1863  1864     9 
 1844  1861  1863  1865     9 
 1862  1861  1863  1847     9 
 1862  1861  1863  1864     9 
 1862  1861  1863  1865     9 
 1866  1861  1863  1847     9 
 1866  1861  1863  1864     9 
 1866  1861  1863  1865     9 
 1844  1861  1866  1867     9 
 1862  1861  1866  1867     9 
 1863  1861  1866  1867     9 
 1861  1866  1867  1868     9 
 1861  1866  1867  1869     9 
 1861  1866  1867  1870     9 
 1866  1867  1870  1871     9 
 1868  1867  1870  1871     9 
 1869  1867  1870  1871     9 
 1867  1870  1871  1872     9 
 1867  1870  1871  1873     9 
 1867  1870  1871  1874     9 
 1870  1871  1874  1875     9 
 1870  1871  1874  1876     9 
 1870  1871  1874  1894     9 
 1872  1871  1874  1875     9 
 1872  1871  1874  1876     9 
 1872  1871  1874  1894     9 
 1873  1871  1874  1875     9 
 1873  1871  1874  1876     9 
 1873  1871  1874  1894     9 
 1871  1874  1876  1877     9 
 1875  1874  1876  1877     9 
 1894  1874  1876  1877     9 
 1871  1874  1894  1895     9 
 1871  1874  1894  1896     9 
 1871  1874  1894  1899     9 
 1875  1874  1894  1895     9 
 1875  1874  1894  1896     9 
 1875  1874  1894  1899     9 
 1876  1874  1894  1895     9 
 1876  1874  1894  1896     9 
 1876  1874  1894  1899     9 
 1874  1876  1877  1878     9 
 1874  1876  1877  1879     9 
 1874  1876  1877  1896     9 
 1876  1877  1879  1880     9 
 1876  1877  1879  1893     9 
 1878  1877  1879  1880     9 
 1878  1877  1879  1893     9 
 1896  1877  1879  1880     9 
 1896  1877  1879  1893     9 
 1876  1877  1896  1894     9 
 1876  1877  1896  1897     9 
 1876  1877  1896  1898     9 
 1878  1877  1896  1894     9 
 1878  1877  1896  1897     9 
 1878  1877  1896  1898     9 
 1879  1877  1896  1894     9 
 1879  1877  1896  1897     9 
 1879  1877  1896  1898     9 
 1877  1879  1880  1881     9 
 1877  1879  1880  1882     9 
 1893  1879  1880  1881     9 
 1893  1879  1880  1882     9 
 1877  1879  1893  1883     9 
 1877  1879  1893  1892     9 
 1880  1879  1893  1883     9 
 1880  1879  1893  1892     9 
 1879  1880  1882  1883     9 
 1881  1880  1882  1883     9 
 1880  1882  1883  1884     9 
 1880  1882  1883  1893     9 
 1882  1883  1884  1885     9 
 1882  1883  1884  1886     9 
 1893  1883  1884  1885     9 
 1893  1883  1884  1886     9 
 1882  1883  1893  1879     9 
 1882  1883  1893  1892     9 
 1884  1883  1893  1879     9 
 1884  1883  1893  1892     9 
 1883  1884  1886  1887     9 
 1883  1884  1886  1888     9 
 1885  1884  1886  1887     9 
 1885  1884  1886  1888     9 
 1884  1886  1888  1889     9 
 1884  1886  1888  1892     9 
 1887  1886  1888  1889     9 
 1887  1886  1888  1892     9 
 1886  1888  1889  1890     9 
 1886  1888  1889  1891     9 
 1892  1888  1889  1890     9 
 1892  1888  1889  1891     9 
 1886  1888  1892  1893     9 
 1889  1888  1892  1893     9 
 1888  1892  1893  1879     9 
 1888  1892  1893  1883     9 
 1874  1894  1896  1877     9 
 1874  1894  1896  1897     9 
 1874  1894  1896  1898     9 
 1895  1894  1896  1877     9 
 1895  1894  1896  1897     9 
 1895  1894  1896  1898     9 
 1899  1894  1896  1877     9 
 1899  1894  1896  1897     9 
 1899  1894  1896  1898     9 
 1874  1894  1899  1900     9 
 1895  1894  1899  1900     9 
 1896  1894  1899  1900     9 
 1894  1899  1900  1901     9 
 1894  1899  1900  1902     9 
 1894  1899  1900  1903     9 
 1899  1900  1903  1904     9 
 1901  1900  1903  1904     9 
 1902  1900  1903  1904     9 
 1900  1903  1904  1905     9 
 1900  1903  1904  1906     9 
 1900  1903  1904  1907     9 
 1903  1904  1907  1908     9 
 1903  1904  1907  1909     9 
 1903  1904  1907  1927     9 
 1905  1904  1907  1908     9 
 1905  1904  1907  1909     9 
 1905  1904  1907  1927     9 
 1906  1904  1907  1908     9 
 1906  1904  1907  1909     9 
 1906  1904  1907  1927     9 
 1904  1907  1909  1910     9 
 1908  1907  1909  1910     9 
 1927  1907  1909  1910     9 
 1904  1907  1927  1928     9 
 1904  1907  1927  1929     9 
 1904  1907  1927  1932     9 
 1908  1907  1927  1928     9 
 1908  1907  1927  1929     9 
 1908  1907  1927  1932     9 
 1909  1907  1927  1928     9 
 1909  1907  1927  1929     9 
 1909  1907  1927  1932     9 
 1907  1909  1910  1911     9 
 1907  1909  1910  1912     9 
 1907  1909  1910  1929     9 
 1909  1910  1912  1913     9 
 1909  1910  1912  1926     9 
 1911  1910  1912  1913     9 
 1911  1910  1912  1926     9 
 1929  1910  1912  1913     9 
 1929  1910  1912  1926     9 
 1909  1910  1929  1927     9 
 1909  1910  1929  1930     9 
 1909  1910  1929  1931     9 
 1911  1910  1929  1927     9 
 1911  1910  1929  1930     9 
 1911  1910  1929  1931     9 
 1912  1910  1929  1927     9 
 1912  1910  1929  1930     9 
 1912  1910  1929  1931     9 
 1910  1912  1913  1914     9 
 1910  1912  1913  1915     9 
 1926  1912  1913  1914     9 
 1926  1912  1913  1915     9 
 1910  1912  1926  1916     9 
 1910  1912  1926  1925     9 
 1913  1912  1926  1916     9 
 1913  1912  1926  1925     9 
 1912  1913  1915  1916     9 
 1914  1913  1915  1916     9 
 1913  1915  1916  1917     9 
 1913  1915  1916  1926     9 
 1915  1916  1917  1918     9 
 1915  1916  1917  1919     9 
 1926  1916  1917  1918     9 
 1926  1916  1917  1919     9 
 1915  1916  1926  1912     9 
 1915  1916  1926  1925     9 
 1917  1916  1926  1912     9 
 1917  1916  1926  1925     9 
 1916  1917  1919  1920     9 
 1916  1917  1919  1921     9 
 1918  1917  1919  1920     9 
 1918  1917  1919  1921     9 
 1917  1919  1921  1922     9 
 1917  1919  1921  1925     9 
 1920  1919  1921  1922     9 
 1920  1919  1921  1925     9 
 1919  1921  1922  1923     9 
 1919  1921  1922  1924     9 
 1925  1921  1922  1923     9 
 1925  1921  1922  1924     9 
 1919  1921  1925  1926     9 
 1922  1921  1925  1926     9 
 1921  1925  1926  1912     9 
 1921  1925  1926  1916     9 
 1907  1927  1929  1910     9 
 1907  1927  1929  1930     9 
 1907  1927  1929  1931     9 
 1928  1927  1929  1910     9 
 1928  1927  1929  1930     9 
 1928  1927  1929  1931     9 
 1932  1927  1929  1910     9 
 1932  1927  1929  1930     9 
 1932  1927  1929  1931     9 
 1907  1927  1932  1933     9 
 1928  1927  1932  1933     9 
 1929  1927  1932  1933     9 
 1927  1932  1933  1934     9 
 1927  1932  1933  1935     9 
 1927  1932  1933  1936     9 
 1932  1933  1936  1937     9 
 1934  1933  1936  1937     9 
 1935  1933  1936  1937     9 
 1933  1936  1937  1938     9 
 1933  1936  1937  1939     9 
 1933  1936  1937  1940     9 
 1936  1937  1940  1941     9 
 1936  1937  1940  1942     9 
 1936  1937  1940  1960     9 
 1938  1937  1940  1941     9 
 1938  1937  1940  1942     9 
 1938  1937  1940  1960     9 
 1939  1937  1940  1941     9 
 1939  1937  1940  1942     9 
 1939  1937  1940  1960     9 
 1937  1940  1942  1943     9 
 1941  1940  1942  1943     9 
 1960  1940  1942  1943     9 
 1937  1940  1960  1961     9 
 1937  1940  1960  1962     9 
 1937  1940  1960  1965     9 
 1941  1940  1960  1961     9 
 1941  1940  1960  1962     9 
 1941  1940  1960  1965     9 
 1942  1940  1960  1961     9 
 1942  1940  1960  1962     9 
 1942  1940  1960  1965     9 
 1940  1942  1943  1944     9 
 1940  1942  1943  1945     9 
 1940  1942  1943  1962     9 
 1942  1943  1945  1946     9 
 1942  1943  1945  1959     9 
 1944  1943  1945  1946     9 
 1944  1943  1945  1959     9 
 1962  1943  1945  1946     9 
 1962  1943  1945  1959     9 
 1942  1943  1962  1960     9 
 1942  1943  1962  1963     9 
 1942  1943  1962  1964     9 
 1944  1943  1962  1960     9 
 1944  1943  1962  1963     9 
 1944  1943  1962  1964     9 
 1945  1943  1962  1960     9 
 1945  1943  1962  1963     9 
 1945  1943  1962  1964     9 
 1943  1945  1946  1947     9 
 1943  1945  1946  1948     9 
 1959  1945  1946  1947     9 
 1959  1945  1946  1948     9 
 1943  1945  1959  1949     9 
 1943  1945  1959  1958     9 
 1946  1945  1959  1949     9 
 1946  1945  1959  1958     9 
 1945  1946  1948  1949     9 
 1947  1946  1948  1949     9 
 1946  1948  1949  1950     9 
 1946  1948  1949  1959     9 
 1948  1949  1950  1951     9 
 1948  1949  1950  1952     9 
 1959  1949  1950  1951     9 
 1959  1949  1950  1952     9 
 1948  1949  1959  1945     9 
 1948  1949  1959  1958     9 
 1950  1949  1959  1945     9 
 1950  1949  1959  1958     9 
 1949  1950  1952  1953     9 
 1949  1950  1952  1954     9 
 1951  1950  1952  1953     9 
 1951  1950  1952  1954     9 
 1950  1952  1954  1955     9 
 1950  1952  1954  1958     9 
 1953  1952  1954  1955     9 
 1953  1952  1954  1958     9 
 1952  1954  1955  1956     9 
 1952  1954  1955  1957     9 
 1958  1954  1955  1956     9 
 1958  1954  1955  1957     9 
 1952  1954  1958  1959     9 
 1955  1954  1958  1959     9 
 1954  1958  1959  1945     9 
 1954  1958  1959  1949     9 
 1940  1960  1962  1943     9 
 1940  1960  1962  1963     9 
 1940  1960  1962  1964     9 
 1961  1960  1962  1943     9 
 1961  1960  1962  1963     9 
 1961  1960  1962  1964     9 
 1965  1960  1962  1943     9 
 1965  1960  1962  1963     9 
 1965  1960  1962  1964     9 
 1940  1960  1965  1966     9 
 1961  1960  1965  1966     9 
 1962  1960  1965  1966     9 
 1960  1965  1966  1967     9 
 1960  1965  1966  1968     9 
 1960  1965  1966  1969     9 
 1965  1966  1969  1970     9 
 1967  1966  1969  1970     9 
 1968  1966  1969  1970     9 
 1966  1969  1970  1971     9 
 1966  1969  1970  1972     9 
 1966  1969  1970  1973     9 
 1969  1970  1973  1974     9 
 1969  1970  1973  1975     9 
 1969  1970  1973  1993     9 
 1971  1970  1973  1974     9 
 1971  1970  1973  1975     9 
 1971  1970  1973  1993     9 
 1972  1970  1973  1974     9 
 1972  1970  1973  1975     9 
 1972  1970  1973  1993     9 
 1970  1973  1975  1976     9 
 1974  1973  1975  1976     9 
 1993  1973  1975  1976     9 
 1970  1973  1993  1994     9 
 1970  1973  1993  1995     9 
 1970  1973  1993  1998     9 
 1974  1973  1993  1994     9 
 1974  1973  1993  1995     9 
 1974  1973  1993  1998     9 
 1975  1973  1993  1994     9 
 1975  1973  1993  1995     9 
 1975  1973  1993  1998     9 
 1973  1975  1976  1977     9 
 1973  1975  1976  1978     9 
 1973  1975  1976  1995     9 
 1975  1976  1978  1979     9 
 1975  1976  1978  1992     9 
 1977  1976  1978  1979     9 
 1977  1976  1978  1992     9 
 1995  1976  1978  1979     9 
 1995  1976  1978  1992     9 
 1975  1976  1995  1993     9 
 1975  1976  1995  1996     9 
 1975  1976  1995  1997     9 
 1977  1976  1995  1993     9 
 1977  1976  1995  1996     9 
 1977  1976  1995  1997     9 
 1978  1976  1995  1993     9 
 1978  1976  1995  1996     9 
 1978  1976  1995  1997     9 
 1976  1978  1979  1980     9 
 1976  1978  1979  1981     9 
 1992  1978  1979  1980     9 
 1992  1978  1979  1981     9 
 1976  1978  1992  1982     9 
 1976  1978  1992  1991     9 
 1979  1978  1992  1982     9 
 1979  1978  1992  1991     9 
 1978  1979  1981  1982     9 
 1980  1979  1981  1982     9 
 1979  1981  1982  1983     9 
 1979  1981  1982  1992     9 
 1981  1982  1983  1984     9 
 1981  1982  1983  1985     9 
 1992  1982  1983  1984     9 
 1992  1982  1983  1985     9 
 1981  1982  1992  1978     9 
 1981  1982  1992  1991     9 
 1983  1982  1992  1978     9 
 1983  1982  1992  1991     9 
 1982  1983  1985  1986     9 
 1982  1983  1985  1987     9 
 1984  1983  1985  1986     9 
 1984  1983  1985  1987     9 
 1983  1985  1987  1988     9 
 1983  1985  1987  1991     9 
 1986  1985  1987  1988     9 
 1986  1985  1987  1991     9 
 1985  1987  1988  1989     9 
 1985  1987  1988  1990     9 
 1991  1987  1988  1989     9 
 1991  1987  1988  1990     9 
 1985  1987  1991  1992     9 
 1988  1987  1991  1992     9 
 1987  1991  1992  1978     9 
 1987  1991  1992  1982     9 
 1973  1993  1995  1976     9 
 1973  1993  1995  1996     9 
 1973  1993  1995  1997     9 
 1994  1993  1995  1976     9 
 1994  1993  1995  1996     9 
 1994  1993  1995  1997     9 
 1998  1993  1995  1976     9 
 1998  1993  1995  1996     9 
 1998  1993  1995  1997     9 
 1973  1993  1998  1999     9 
 1994  1993  1998  1999     9 
 1995  1993  1998  1999     9 
 1993  1998  1999  2000     9 
 1993  1998  1999  2001     9 
 1993  1998  1999  2002     9 
 1998  1999  2002  2003     9 
 2000  1999  2002  2003     9 
 2001  1999  2002  2003     9 
 1999  2002  2003  2004     9 
 1999  2002  2003  2005     9 
 1999  2002  2003  2006     9 
 2002  2003  2006  2007     9 
 2002  2003  2006  2008     9 
 2002  2003  2006  2023     9 
 2004  2003  2006  2007     9 
 2004  2003  2006  2008     9 
 2004  2003  2006  2023     9 
 2005  2003  2006  2007     9 
 2005  2003  2006  2008     9 
 2005  2003  2006  2023     9 
 2003  2006  2008  2009     9 
 2007  2006  2008  2009     9 
 2023  2006  2008  2009     9 
 2003  2006  2023  2024     9 
 2003  2006  2023  2025     9 
 2003  2006  2023  2028     9 
 2007  2006  2023  2024     9 
 2007  2006  2023  2025     9 
 2007  2006  2023  2028     9 
 2008  2006  2023  2024     9 
 2008  2006  2023  2025     9 
 2008  2006  2023  2028     9 
 2006  2008  2009  2010     9 
 2006  2008  2009  2011     9 
 2006  2008  2009  2025     9 
 2008  2009  2011  2012     9 
 2008  2009  2011  2021     9 
 2010  2009  2011  2012     9 
 2010  2009  2011  2021     9 
 2025  2009  2011  2012     9 
 2025  2009  2011  2021     9 
 2008  2009  2025  2023     9 
 2008  2009  2025  2026     9 
 2008  2009  2025  2027     9 
 2010  2009  2025  2023     9 
 2010  2009  2025  2026     9 
 2010  2009  2025  2027     9 
 2011  2009  2025  2023     9 
 2011  2009  2025  2026     9 
 2011  2009  2025  2027     9 
 2009  2011  2012  2013     9 
 2009  2011  2012  2014     9 
 2021  2011  2012  2013     9 
 2021  2011  2012  2014     9 
 2009  2011  2021  2020     9 
 2009  2011  2021  2022     9 
 2012  2011  2021  2020     9 
 2012  2011  2021  2022     9 
 2011  2012  2014  2015     9 
 2011  2012  2014  2016     9 
 2013  2012  2014  2015     9 
 2013  2012  2014  2016     9 
 2012  2014  2016  2017     9 
 2012  2014  2016  2020     9 
 2015  2014  2016  2017     9 
 2015  2014  2016  2020     9 
 2014  2016  2017  2018     9 
 2014  2016  2017  2019     9 
 2020  2016  2017  2018     9 
 2020  2016  2017  2019     9 
 2014  2016  2020  2021     9 
 2017  2016  2020  2021     9 
 2016  2020  2021  2011     9 
 2016  2020  2021  2022     9 
 2006  2023  2025  2009     9 
 2006  2023  2025  2026     9 
 2006  2023  2025  2027     9 
 2024  2023  2025  2009     9 
 2024  2023  2025  2026     9 
 2024  2023  2025  2027     9 
 2028  2023  2025  2009     9 
 2028  2023  2025  2026     9 
 2028  2023  2025  2027     9 
 2006  2023  2028  2029     9 
 2024  2023  2028  2029     9 
 2025  2023  2028  2029     9 
 2023  2028  2029  2030     9 
 2023  2028  2029  2031     9 
 2023  2028  2029  2032     9 
 2028  2029  2032  2033     9 
 2030  2029  2032  2033     9 
 2031  2029  2032  2033     9 
 2029  2032  2033  2034     9 
 2029  2032  2033  2035     9 
 2029  2032  2033  2036     9 
 2032  2033  2036  2037     9 
 2032  2033  2036  2038     9 
 2032  2033  2036  2053     9 
 2034  2033  2036  2037     9 
 2034  2033  2036  2038     9 
 2034  2033  2036  2053     9 
 2035  2033  2036  2037     9 
 2035  2033  2036  2038     9 
 2035  2033  2036  2053     9 
 2033  2036  2038  2039     9 
 2037  2036  2038  2039     9 
 2053  2036  2038  2039     9 
 2033  2036  2053  2054     9 
 2033  2036  2053  2055     9 
 2033  2036  2053  2058     9 
 2037  2036  2053  2054     9 
 2037  2036  2053  2055     9 
 2037  2036  2053  2058     9 
 2038  2036  2053  2054     9 
 2038  2036  2053  2055     9 
 2038  2036  2053  2058     9 
 2036  2038  2039  2040     9 
 2036  2038  2039  2041     9 
 2036  2038  2039  2055     9 
 2038  2039  2041  2042     9 
 2038  2039  2041  2051     9 
 2040  2039  2041  2042     9 
 2040  2039  2041  2051     9 
 2055  2039  2041  2042     9 
 2055  2039  2041  2051     9 
 2038  2039  2055  2053     9 
 2038  2039  2055  2056     9 
 2038  2039  2055  2057     9 
 2040  2039  2055  2053     9 
 2040  2039  2055  2056     9 
 2040  2039  2055  2057     9 
 2041  2039  2055  2053     9 
 2041  2039  2055  2056     9 
 2041  2039  2055  2057     9 
 2039  2041  2042  2043     9 
 2039  2041  2042  2044     9 
 2051  2041  2042  2043     9 
 2051  2041  2042  2044     9 
 2039  2041  2051  2050     9 
 2039  2041  2051  2052     9 
 2042  2041  2051  2050     9 
 2042  2041  2051  2052     9 
 2041  2042  2044  2045     9 
 2041  2042  2044  2046     9 
 2043  2042  2044  2045     9 
 2043  2042  2044  2046     9 
 2042  2044  2046  2047     9 
 2042  2044  2046  2050     9 
 2045  2044  2046  2047     9 
 2045  2044  2046  2050     9 
 2044  2046  2047  2048     9 
 2044  2046  2047  2049     9 
 2050  2046  2047  2048     9 
 2050  2046  2047  2049     9 
 2044  2046  2050  2051     9 
 2047  2046  2050  2051     9 
 2046  2050  2051  2041     9 
 2046  2050  2051  2052     9 
 2036  2053  2055  2039     9 
 2036  2053  2055  2056     9 
 2036  2053  2055  2057     9 
 2054  2053  2055  2039     9 
 2054  2053  2055  2056     9 
 2054  2053  2055  2057     9 
 2058  2053  2055  2039     9 
 2058  2053  2055  2056     9 
 2058  2053  2055  2057     9 
 2036  2053  2058  2059     9 
 2054  2053  2058  2059     9 
 2055  2053  2058  2059     9 
 2053  2058  2059  2060     9 
 2053  2058  2059  2061     9 
 2053  2058  2059  2062     9 
 2058  2059  2062  2063     9 
 2060  2059  2062  2063     9 
 2061  2059  2062  2063     9 
 2059  2062  2063  2064     9 
 2059  2062  2063  2065     9 
 2059  2062  2063  2066     9 
 2062  2063  2066  2067     9 
 2062  2063  2066  2068     9 
 2062  2063  2066  2085     9 
 2064  2063  2066  2067     9 
 2064  2063  2066  2068     9 
 2064  2063  2066  2085     9 
 2065  2063  2066  2067     9 
 2065  2063  2066  2068     9 
 2065  2063  2066  2085     9 
 2063  2066  2068  2069     9 
 2067  2066  2068  2069     9 
 2085  2066  2068  2069     9 
 2063  2066  2085  2086     9 
 2063  2066  2085  2087     9 
 2063  2066  2085  2090     9 
 2067  2066  2085  2086     9 
 2067  2066  2085  2087     9 
 2067  2066  2085  2090     9 
 2068  2066  2085  2086     9 
 2068  2066  2085  2087     9 
 2068  2066  2085  2090     9 
 2066  2068  2069  2070     9 
 2066  2068  2069  2071     9 
 2066  2068  2069  2087     9 
 2068  2069  2071  2072     9 
 2068  2069  2071  2084     9 
 2070  2069  2071  2072     9 
 2070  2069  2071  2084     9 
 2087  2069  2071  2072     9 
 2087  2069  2071  2084     9 
 2068  2069  2087  2085     9 
 2068  2069  2087  2088     9 
 2068  2069  2087  2089     9 
 2070  2069  2087  2085     9 
 2070  2069  2087  2088     9 
 2070  2069  2087  2089     9 
 2071  2069  2087  2085     9 
 2071  2069  2087  2088     9 
 2071  2069  2087  2089     9 
 2069  2071  2072  2073     9 
 2069  2071  2072  2074     9 
 2084  2071  2072  2073     9 
 2084  2071  2072  2074     9 
 2069  2071  2084  2075     9 
 2069  2071  2084  2083     9 
 2072  2071  2084  2075     9 
 2072  2071  2084  2083     9 
 2071  2072  2074  2075     9 
 2073  2072  2074  2075     9 
 2072  2074  2075  2076     9 
 2072  2074  2075  2084     9 
 2074  2075  2076  2077     9 
 2074  2075  2076  2080     9 
 2084  2075  2076  2077     9 
 2084  2075  2076  2080     9 
 2074  2075  2084  2071     9 
 2074  2075  2084  2083     9 
 2076  2075  2084  2071     9 
 2076  2075  2084  2083     9 
 2075  2076  2077  2078     9 
 2075  2076  2077  2079     9 
 2080  2076  2077  2078     9 
 2080  2076  2077  2079     9 
 2075  2076  2080  2081     9 
 2077  2076  2080  2081     9 
 2076  2080  2081  2082     9 
 2076  2080  2081  2083     9 
 2080  2081  2083  2084     9 
 2082  2081  2083  2084     9 
 2081  2083  2084  2071     9 
 2081  2083  2084  2075     9 
 2066  2085  2087  2069     9 
 2066  2085  2087  2088     9 
 2066  2085  2087  2089     9 
 2086  2085  2087  2069     9 
 2086  2085  2087  2088     9 
 2086  2085  2087  2089     9 
 2090  2085  2087  2069     9 
 2090  2085  2087  2088     9 
 2090  2085  2087  2089     9 
 2066  2085  2090  2091     9 
 2086  2085  2090  2091     9 
 2087  2085  2090  2091     9 
 2085  2090  2091  2092     9 
 2085  2090  2091  2093     9 
 2085  2090  2091  2094     9 
 2090  2091  2094  2095     9 
 2092  2091  2094  2095     9 
 2093  2091  2094  2095     9 
 2091  2094  2095  2096     9 
 2091  2094  2095  2097     9 
 2091  2094  2095  2098     9 
 2094  2095  2098  2099     9 
 2094  2095  2098  2100     9 
 2094  2095  2098  2118     9 
 2096  2095  2098  2099     9 
 2096  2095  2098  2100     9 
 2096  2095  2098  2118     9 
 2097  2095  2098  2099     9 
 2097  2095  2098  2100     9 
 2097  2095  2098  2118     9 
 2095  2098  2100  2101     9 
 2099  2098  2100  2101     9 
 2118  2098  2100  2101     9 
 2095  2098  2118  2119     9 
 2095  2098  2118  2120     9 
 2095  2098  2118  2123     9 
 2099  2098  2118  2119     9 
 2099  2098  2118  2120     9 
 2099  2098  2118  2123     9 
 2100  2098  2118  2119     9 
 2100  2098  2118  2120     9 
 2100  2098  2118  2123     9 
 2098  2100  2101  2102     9 
 2098  2100  2101  2103     9 
 2098  2100  2101  2120     9 
 2100  2101  2103  2104     9 
 2100  2101  2103  2117     9 
 2102  2101  2103  2104     9 
 2102  2101  2103  2117     9 
 2120  2101  2103  2104     9 
 2120  2101  2103  2117     9 
 2100  2101  2120  2118     9 
 2100  2101  2120  2121     9 
 2100  2101  2120  2122     9 
 2102  2101  2120  2118     9 
 2102  2101  2120  2121     9 
 2102  2101  2120  2122     9 
 2103  2101  2120  2118     9 
 2103  2101  2120  2121     9 
 2103  2101  2120  2122     9 
 2101  2103  2104  2105     9 
 2101  2103  2104  2106     9 
 2117  2103  2104  2105     9 
 2117  2103  2104  2106     9 
 2101  2103  2117  2107     9 
 2101  2103  2117  2116     9 
 2104  2103  2117  2107     9 
 2104  2103  2117  2116     9 
 2103  2104  2106  2107     9 
 2105  2104  2106  2107     9 
 2104  2106  2107  2108     9 
 2104  2106  2107  2117     9 
 2106  2107  2108  2109     9 
 2106  2107  2108  2110     9 
 2117  2107  2108  2109     9 
 2117  2107  2108  2110     9 
 2106  2107  2117  2103     9 
 2106  2107  2117  2116     9 
 2108  2107  2117  2103     9 
 2108  2107  2117  2116     9 
 2107  2108  2110  2111     9 
 2107  2108  2110  2112     9 
 2109  2108  2110  2111     9 
 2109  2108  2110  2112     9 
 2108  2110  2112  2113     9 
 2108  2110  2112  2116     9 
 2111  2110  2112  2113     9 
 2111  2110  2112  2116     9 
 2110  2112  2113  2114     9 
 2110  2112  2113  2115     9 
 2116  2112  2113  2114     9 
 2116  2112  2113  2115     9 
 2110  2112  2116  2117     9 
 2113  2112  2116  2117     9 
 2112  2116  2117  2103     9 
 2112  2116  2117  2107     9 
 2098  2118  2120  2101     9 
 2098  2118  2120  2121     9 
 2098  2118  2120  2122     9 
 2119  2118  2120  2101     9 
 2119  2118  2120  2121     9 
 2119  2118  2120  2122     9 
 2123  2118  2120  2101     9 
 2123  2118  2120  2121     9 
 2123  2118  2120  2122     9 
 2098  2118  2123  2124     9 
 2119  2118  2123  2124     9 
 2120  2118  2123  2124     9 
 2118  2123  2124  2125     9 
 2118  2123  2124  2126     9 
 2118  2123  2124  2127     9 
 2123  2124  2127  2128     9 
 2125  2124  2127  2128     9 
 2126  2124  2127  2128     9 
 2124  2127  2128  2129     9 
 2124  2127  2128  2130     9 
 2124  2127  2128  2131     9 
 2127  2128  2131  2132     9 
 2127  2128  2131  2133     9 
 2127  2128  2131  2150     9 
 2129  2128  2131  2132     9 
 2129  2128  2131  2133     9 
 2129  2128  2131  2150     9 
 2130  2128  2131  2132     9 
 2130  2128  2131  2133     9 
 2130  2128  2131  2150     9 
 2128  2131  2133  2134     9 
 2132  2131  2133  2134     9 
 2150  2131  2133  2134     9 
 2128  2131  2150  2151     9 
 2128  2131  2150  2152     9 
 2128  2131  2150  2155     9 
 2132  2131  2150  2151     9 
 2132  2131  2150  2152     9 
 2132  2131  2150  2155     9 
 2133  2131  2150  2151     9 
 2133  2131  2150  2152     9 
 2133  2131  2150  2155     9 
 2131  2133  2134  2135     9 
 2131  2133  2134  2136     9 
 2131  2133  2134  2152     9 
 2133  2134  2136  2137     9 
 2133  2134  2136  2149     9 
 2135  2134  2136  2137     9 
 2135  2134  2136  2149     9 
 2152  2134  2136  2137     9 
 2152  2134  2136  2149     9 
 2133  2134  2152  2150     9 
 2133  2134  2152  2153     9 
 2133  2134  2152  2154     9 
 2135  2134  2152  2150     9 
 2135  2134  2152  2153     9 
 2135  2134  2152  2154     9 
 2136  2134  2152  2150     9 
 2136  2134  2152  2153     9 
 2136  2134  2152  2154     9 
 2134  2136  2137  2138     9 
 2134  2136  2137  2139     9 
 2149  2136  2137  2138     9 
 2149  2136  2137  2139     9 
 2134  2136  2149  2140     9 
 2134  2136  2149  2148     9 
 2137  2136  2149  2140     9 
 2137  2136  2149  2148     9 
 2136  2137  2139  2140     9 
 2138  2137  2139  2140     9 
 2137  2139  2140  2141     9 
 2137  2139  2140  2149     9 
 2139  2140  2141  2142     9 
 2139  2140  2141  2145     9 
 2149  2140  2141  2142     9 
 2149  2140  2141  2145     9 
 2139  2140  2149  2136     9 
 2139  2140  2149  2148     9 
 2141  2140  2149  2136     9 
 2141  2140  2149  2148     9 
 2140  2141  2142  2143     9 
 2140  2141  2142  2144     9 
 2145  2141  2142  2143     9 
 2145  2141  2142  2144     9 
 2140  2141  2145  2146     9 
 2142  2141  2145  2146     9 
 2141  2145  2146  2147     9 
 2141  2145  2146  2148     9 
 2145  2146  2148  2149     9 
 2147  2146  2148  2149     9 
 2146  2148  2149  2136     9 
 2146  2148  2149  2140     9 
 2131  2150  2152  2134     9 
 2131  2150  2152  2153     9 
 2131  2150  2152  2154     9 
 2151  2150  2152  2134     9 
 2151  2150  2152  2153     9 
 2151  2150  2152  2154     9 
 2155  2150  2152  2134     9 
 2155  2150  2152  2153     9 
 2155  2150  2152  2154     9 
 2131  2150  2155  2156     9 
 2151  2150  2155  2156     9 
 2152  2150  2155  2156     9 
 2150  2155  2156  2157     9 
 2150  2155  2156  2158     9 
 2150  2155  2156  2159     9 
 2155  2156  2159  2160     9 
 2157  2156  2159  2160     9 
 2158  2156  2159  2160     9 
 2156  2159  2160  2161     9 
 2156  2159  2160  2162     9 
 2156  2159  2160  2163     9 
 2159  2160  2163  2164     9 
 2159  2160  2163  2165     9 
 2159  2160  2163  2183     9 
 2161  2160  2163  2164     9 
 2161  2160  2163  2165     9 
 2161  2160  2163  2183     9 
 2162  2160  2163  2164     9 
 2162  2160  2163  2165     9 
 2162  2160  2163  2183     9 
 2160  2163  2165  2166     9 
 2164  2163  2165  2166     9 
 2183  2163  2165  2166     9 
 2160  2163  2183  2184     9 
 2160  2163  2183  2185     9 
 2160  2163  2183  2188     9 
 2164  2163  2183  2184     9 
 2164  2163  2183  2185     9 
 2164  2163  2183  2188     9 
 2165  2163  2183  2184     9 
 2165  2163  2183  2185     9 
 2165  2163  2183  2188     9 
 2163  2165  2166  2167     9 
 2163  2165  2166  2168     9 
 2163  2165  2166  2185     9 
 2165  2166  2168  2169     9 
 2165  2166  2168  2182     9 
 2167  2166  2168  2169     9 
 2167  2166  2168  2182     9 
 2185  2166  2168  2169     9 
 2185  2166  2168  2182     9 
 2165  2166  2185  2183     9 
 2165  2166  2185  2186     9 
 2165  2166  2185  2187     9 
 2167  2166  2185  2183     9 
 2167  2166  2185  2186     9 
 2167  2166  2185  2187     9 
 2168  2166  2185  2183     9 
 2168  2166  2185  2186     9 
 2168  2166  2185  2187     9 
 2166  2168  2169  2170     9 
 2166  2168  2169  2171     9 
 2182  2168  2169  2170     9 
 2182  2168  2169  2171     9 
 2166  2168  2182  2172     9 
 2166  2168  2182  2181     9 
 2169  2168  2182  2172     9 
 2169  2168  2182  2181     9 
 2168  2169  2171  2172     9 
 2170  2169  2171  2172     9 
 2169  2171  2172  2173     9 
 2169  2171  2172  2182     9 
 2171  2172  2173  2174     9 
 2171  2172  2173  2175     9 
 2182  2172  2173  2174     9 
 2182  2172  2173  2175     9 
 2171  2172  2182  2168     9 
 2171  2172  2182  2181     9 
 2173  2172  2182  2168     9 
 2173  2172  2182  2181     9 
 2172  2173  2175  2176     9 
 2172  2173  2175  2177     9 
 2174  2173  2175  2176     9 
 2174  2173  2175  2177     9 
 2173  2175  2177  2178     9 
 2173  2175  2177  2181     9 
 2176  2175  2177  2178     9 
 2176  2175  2177  2181     9 
 2175  2177  2178  2179     9 
 2175  2177  2178  2180     9 
 2181  2177  2178  2179     9 
 2181  2177  2178  2180     9 
 2175  2177  2181  2182     9 
 2178  2177  2181  2182     9 
 2177  2181  2182  2168     9 
 2177  2181  2182  2172     9 
 2163  2183  2185  2166     9 
 2163  2183  2185  2186     9 
 2163  2183  2185  2187     9 
 2184  2183  2185  2166     9 
 2184  2183  2185  2186     9 
 2184  2183  2185  2187     9 
 2188  2183  2185  2166     9 
 2188  2183  2185  2186     9 
 2188  2183  2185  2187     9 
 2163  2183  2188  2189     9 
 2184  2183  2188  2189     9 
 2185  2183  2188  2189     9 
 2183  2188  2189  2190     9 
 2183  2188  2189  2191     9 
 2183  2188  2189  2192     9 
 2188  2189  2192  2193     9 
 2190  2189  2192  2193     9 
 2191  2189  2192  2193     9 
 2189  2192  2193  2194     9 
 2189  2192  2193  2195     9 
 2189  2192  2193  2196     9 
 2192  2193  2196  2197     9 
 2192  2193  2196  2198     9 
 2192  2193  2196  2216     9 
 2194  2193  2196  2197     9 
 2194  2193  2196  2198     9 
 2194  2193  2196  2216     9 
 2195  2193  2196  2197     9 
 2195  2193  2196  2198     9 
 2195  2193  2196  2216     9 
 2193  2196  2198  2199     9 
 2197  2196  2198  2199     9 
 2216  2196  2198  2199     9 
 2193  2196  2216  2217     9 
 2193  2196  2216  2218     9 
 2193  2196  2216  2221     9 
 2197  2196  2216  2217     9 
 2197  2196  2216  2218     9 
 2197  2196  2216  2221     9 
 2198  2196  2216  2217     9 
 2198  2196  2216  2218     9 
 2198  2196  2216  2221     9 
 2196  2198  2199  2200     9 
 2196  2198  2199  2201     9 
 2196  2198  2199  2218     9 
 2198  2199  2201  2202     9 
 2198  2199  2201  2215     9 
 2200  2199  2201  2202     9 
 2200  2199  2201  2215     9 
 2218  2199  2201  2202     9 
 2218  2199  2201  2215     9 
 2198  2199  2218  2216     9 
 2198  2199  2218  2219     9 
 2198  2199  2218  2220     9 
 2200  2199  2218  2216     9 
 2200  2199  2218  2219     9 
 2200  2199  2218  2220     9 
 2201  2199  2218  2216     9 
 2201  2199  2218  2219     9 
 2201  2199  2218  2220     9 
 2199  2201  2202  2203     9 
 2199  2201  2202  2204     9 
 2215  2201  2202  2203     9 
 2215  2201  2202  2204     9 
 2199  2201  2215  2205     9 
 2199  2201  2215  2214     9 
 2202  2201  2215  2205     9 
 2202  2201  2215  2214     9 
 2201  2202  2204  2205     9 
 2203  2202  2204  2205     9 
 2202  2204  2205  2206     9 
 2202  2204  2205  2215     9 
 2204  2205  2206  2207     9 
 2204  2205  2206  2208     9 
 2215  2205  2206  2207     9 
 2215  2205  2206  2208     9 
 2204  2205  2215  2201     9 
 2204  2205  2215  2214     9 
 2206  2205  2215  2201     9 
 2206  2205  2215  2214     9 
 2205  2206  2208  2209     9 
 2205  2206  2208  2210     9 
 2207  2206  2208  2209     9 
 2207  2206  2208  2210     9 
 2206  2208  2210  2211     9 
 2206  2208  2210  2214     9 
 2209  2208  2210  2211     9 
 2209  2208  2210  2214     9 
 2208  2210  2211  2212     9 
 2208  2210  2211  2213     9 
 2214  2210  2211  2212     9 
 2214  2210  2211  2213     9 
 2208  2210  2214  2215     9 
 2211  2210  2214  2215     9 
 2210  2214  2215  2201     9 
 2210  2214  2215  2205     9 
 2196  2216  2218  2199     9 
 2196  2216  2218  2219     9 
 2196  2216  2218  2220     9 
 2217  2216  2218  2199     9 
 2217  2216  2218  2219     9 
 2217  2216  2218  2220     9 
 2221  2216  2218  2199     9 
 2221  2216  2218  2219     9 
 2221  2216  2218  2220     9 
 2196  2216  2221  2222     9 
 2217  2216  2221  2222     9 
 2218  2216  2221  2222     9 
 2216  2221  2222  2223     9 
 2216  2221  2222  2224     9 
 2216  2221  2222  2225     9 
 2221  2222  2225  2226     9 
 2223  2222  2225  2226     9 
 2224  2222  2225  2226     9 
 2222  2225  2226  2227     9 
 2222  2225  2226  2228     9 
 2222  2225  2226  2229     9 
 2225  2226  2229  2230     9 
 2225  2226  2229  2231     9 
 2225  2226  2229  2246     9 
 2227  2226  2229  2230     9 
 2227  2226  2229  2231     9 
 2227  2226  2229  2246     9 
 2228  2226  2229  2230     9 
 2228  2226  2229  2231     9 
 2228  2226  2229  2246     9 
 2226  2229  2231  2232     9 
 2230  2229  2231  2232     9 
 2246  2229  2231  2232     9 
 2226  2229  2246  2247     9 
 2226  2229  2246  2248     9 
 2226  2229  2246  2251     9 
 2230  2229  2246  2247     9 
 2230  2229  2246  2248     9 
 2230  2229  2246  2251     9 
 2231  2229  2246  2247     9 
 2231  2229  2246  2248     9 
 2231  2229  2246  2251     9 
 2229  2231  2232  2233     9 
 2229  2231  2232  2234     9 
 2229  2231  2232  2248     9 
 2231  2232  2234  2235     9 
 2231  2232  2234  2244     9 
 2233  2232  2234  2235     9 
 2233  2232  2234  2244     9 
 2248  2232  2234  2235     9 
 2248  2232  2234  2244     9 
 2231  2232  2248  2246     9 
 2231  2232  2248  2249     9 
 2231  2232  2248  2250     9 
 2233  2232  2248  2246     9 
 2233  2232  2248  2249     9 
 2233  2232  2248  2250     9 
 2234  2232  2248  2246     9 
 2234  2232  2248  2249     9 
 2234  2232  2248  2250     9 
 2232  2234  2235  2236     9 
 2232  2234  2235  2237     9 
 2244  2234  2235  2236     9 
 2244  2234  2235  2237     9 
 2232  2234  2244  2243     9 
 2232  2234  2244  2245     9 
 2235  2234  2244  2243     9 
 2235  2234  2244  2245     9 
 2234  2235  2237  2238     9 
 2234  2235  2237  2239     9 
 2236  2235  2237  2238     9 
 2236  2235  2237  2239     9 
 2235  2237  2239  2240     9 
 2235  2237  2239  2243     9 
 2238  2237  2239  2240     9 
 2238  2237  2239  2243     9 
 2237  2239  2240  2241     9 
 2237  2239  2240  2242     9 
 2243  2239  2240  2241     9 
 2243  2239  2240  2242     9 
 2237  2239  2243  2244     9 
 2240  2239  2243  2244     9 
 2239  2243  2244  2234     9 
 2239  2243  2244  2245     9 
 2229  2246  2248  2232     9 
 2229  2246  2248  2249     9 
 2229  2246  2248  2250     9 
 2247  2246  2248  2232     9 
 2247  2246  2248  2249     9 
 2247  2246  2248  2250     9 
 2251  2246  2248  2232     9 
 2251  2246  2248  2249     9 
 2251  2246  2248  2250     9 
 2229  2246  2251  2252     9 
 2247  2246  2251  2252     9 
 2248  2246  2251  2252     9 
 2246  2251  2252  2253     9 
 2246  2251  2252  2254     9 
 2246  2251  2252  2255     9 
 2251  2252  2255  2256     9 
 2253  2252  2255  2256     9 
 2254  2252  2255  2256     9 
 2252  2255  2256  2257     9 
 2252  2255  2256  2258     9 
 2252  2255  2256  2259     9 
 2255  2256  2259  2260     9 
 2255  2256  2259  2261     9 
 2255  2256  2259  2278     9 
 2257  2256  2259  2260     9 
 2257  2256  2259  2261     9 
 2257  2256  2259  2278     9 
 2258  2256  2259  2260     9 
 2258  2256  2259  2261     9 
 2258  2256  2259  2278     9 
 2256  2259  2261  2262     9 
 2260  2259  2261  2262     9 
 2278  2259  2261  2262     9 
 2256  2259  2278  2279     9 
 2256  2259  2278  2280     9 
 2256  2259  2278  2283     9 
 2260  2259  2278  2279     9 
 2260  2259  2278  2280     9 
 2260  2259  2278  2283     9 
 2261  2259  2278  2279     9 
 2261  2259  2278  2280     9 
 2261  2259  2278  2283     9 
 2259  2261  2262  2263     9 
 2259  2261  2262  2264     9 
 2259  2261  2262  2280     9 
 2261  2262  2264  2265     9 
 2261  2262  2264  2276     9 
 2263  2262  2264  2265     9 
 2263  2262  2264  2276     9 
 2280  2262  2264  2265     9 
 2280  2262  2264  2276     9 
 2261  2262  2280  2278     9 
 2261  2262  2280  2281     9 
 2261  2262  2280  2282     9 
 2263  2262  2280  2278     9 
 2263  2262  2280  2281     9 
 2263  2262  2280  2282     9 
 2264  2262  2280  2278     9 
 2264  2262  2280  2281     9 
 2264  2262  2280  2282     9 
 2262  2264  2265  2266     9 
 2262  2264  2265  2267     9 
 2276  2264  2265  2266     9 
 2276  2264  2265  2267     9 
 2262  2264  2276  2274     9 
 2262  2264  2276  2277     9 
 2265  2264  2276  2274     9 
 2265  2264  2276  2277     9 
 2264  2265  2267  2268     9 
 2264  2265  2267  2272     9 
 2266  2265  2267  2268     9 
 2266  2265  2267  2272     9 
 2265  2267  2268  2269     9 
 2265  2267  2268  2270     9 
 2265  2267  2268  2271     9 
 2272  2267  2268  2269     9 
 2272  2267  2268  2270     9 
 2272  2267  2268  2271     9 
 2265  2267  2272  2273     9 
 2265  2267  2272  2274     9 
 2268  2267  2272  2273     9 
 2268  2267  2272  2274     9 
 2267  2272  2274  2275     9 
 2267  2272  2274  2276     9 
 2273  2272  2274  2275     9 
 2273  2272  2274  2276     9 
 2272  2274  2276  2264     9 
 2272  2274  2276  2277     9 
 2275  2274  2276  2264     9 
 2275  2274  2276  2277     9 
 2259  2278  2280  2262     9 
 2259  2278  2280  2281     9 
 2259  2278  2280  2282     9 
 2279  2278  2280  2262     9 
 2279  2278  2280  2281     9 
 2279  2278  2280  2282     9 
 2283  2278  2280  2262     9 
 2283  2278  2280  2281     9 
 2283  2278  2280  2282     9 
 2259  2278  2283  2284     9 
 2279  2278  2283  2284     9 
 2280  2278  2283  2284     9 
 2278  2283  2284  2285     9 
 2278  2283  2284  2286     9 
 2278  2283  2284  2287     9 
 2283  2284  2287  2288     9 
 2285  2284  2287  2288     9 
 2286  2284  2287  2288     9 
 2284  2287  2288  2289     9 
 2284  2287  2288  2290     9 
 2284  2287  2288  2291     9 
 2287  2288  2291  2292     9 
 2287  2288  2291  2293     9 
 2287  2288  2291  2308     9 
 2289  2288  2291  2292     9 
 2289  2288  2291  2293     9 
 2289  2288  2291  2308     9 
 2290  2288  2291  2292     9 
 2290  2288  2291  2293     9 
 2290  2288  2291  2308     9 
 2288  2291  2293  2294     9 
 2292  2291  2293  2294     9 
 2308  2291  2293  2294     9 
 2288  2291  2308  2309     9 
 2288  2291  2308  2310     9 
 2288  2291  2308  2313     9 
 2292  2291  2308  2309     9 
 2292  2291  2308  2310     9 
 2292  2291  2308  2313     9 
 2293  2291  2308  2309     9 
 2293  2291  2308  2310     9 
 2293  2291  2308  2313     9 
 2291  2293  2294  2295     9 
 2291  2293  2294  2296     9 
 2291  2293  2294  2310     9 
 2293  2294  2296  2297     9 
 2293  2294  2296  2306     9 
 2295  2294  2296  2297     9 
 2295  2294  2296  2306     9 
 2310  2294  2296  2297     9 
 2310  2294  2296  2306     9 
 2293  2294  2310  2308     9 
 2293  2294  2310  2311     9 
 2293  2294  2310  2312     9 
 2295  2294  2310  2308     9 
 2295  2294  2310  2311     9 
 2295  2294  2310  2312     9 
 2296  2294  2310  2308     9 
 2296  2294  2310  2311     9 
 2296  2294  2310  2312     9 
 2294  2296  2297  2298     9 
 2294  2296  2297  2299     9 
 2306  2296  2297  2298     9 
 2306  2296  2297  2299     9 
 2294  2296  2306  2305     9 
 2294  2296  2306  2307     9 
 2297  2296  2306  2305     9 
 2297  2296  2306  2307     9 
 2296  2297  2299  2300     9 
 2296  2297  2299  2301     9 
 2298  2297  2299  2300     9 
 2298  2297  2299  2301     9 
 2297  2299  2301  2302     9 
 2297  2299  2301  2305     9 
 2300  2299  2301  2302     9 
 2300  2299  2301  2305     9 
 2299  2301  2302  2303     9 
 2299  2301  2302  2304     9 
 2305  2301  2302  2303     9 
 2305  2301  2302  2304     9 
 2299  2301  2305  2306     9 
 2302  2301  2305  2306     9 
 2301  2305  2306  2296     9 
 2301  2305  2306  2307     9 
 2291  2308  2310  2294     9 
 2291  2308  2310  2311     9 
 2291  2308  2310  2312     9 
 2309  2308  2310  2294     9 
 2309  2308  2310  2311     9 
 2309  2308  2310  2312     9 
 2313  2308  2310  2294     9 
 2313  2308  2310  2311     9 
 2313  2308  2310  2312     9 
 2291  2308  2313  2314     9 
 2309  2308  2313  2314     9 
 2310  2308  2313  2314     9 
 2308  2313  2314  2315     9 
 2308  2313  2314  2316     9 
 2308  2313  2314  2317     9 
 2313  2314  2317  2318     9 
 2315  2314  2317  2318     9 
 2316  2314  2317  2318     9 
 2314  2317  2318  2319     9 
 2314  2317  2318  2320     9 
 2314  2317  2318  2321     9 
 2317  2318  2321  2322     9 
 2317  2318  2321  2323     9 
 2317  2318  2321  2340     9 
 2319  2318  2321  2322     9 
 2319  2318  2321  2323     9 
 2319  2318  2321  2340     9 
 2320  2318  2321  2322     9 
 2320  2318  2321  2323     9 
 2320  2318  2321  2340     9 
 2318  2321  2323  2324     9 
 2322  2321  2323  2324     9 
 2340  2321  2323  2324     9 
 2318  2321  2340  2341     9 
 2318  2321  2340  2342     9 
 2318  2321  2340  2345     9 
 2322  2321  2340  2341     9 
 2322  2321  2340  2342     9 
 2322  2321  2340  2345     9 
 2323  2321  2340  2341     9 
 2323  2321  2340  2342     9 
 2323  2321  2340  2345     9 
 2321  2323  2324  2325     9 
 2321  2323  2324  2326     9 
 2321  2323  2324  2342     9 
 2323  2324  2326  2327     9 
 2323  2324  2326  2339     9 
 2325  2324  2326  2327     9 
 2325  2324  2326  2339     9 
 2342  2324  2326  2327     9 
 2342  2324  2326  2339     9 
 2323  2324  2342  2340     9 
 2323  2324  2342  2343     9 
 2323  2324  2342  2344     9 
 2325  2324  2342  2340     9 
 2325  2324  2342  2343     9 
 2325  2324  2342  2344     9 
 2326  2324  2342  2340     9 
 2326  2324  2342  2343     9 
 2326  2324  2342  2344     9 
 2324  2326  2327  2328     9 
 2324  2326  2327  2329     9 
 2339  2326  2327  2328     9 
 2339  2326  2327  2329     9 
 2324  2326  2339  2330     9 
 2324  2326  2339  2338     9 
 2327  2326  2339  2330     9 
 2327  2326  2339  2338     9 
 2326  2327  2329  2330     9 
 2328  2327  2329  2330     9 
 2327  2329  2330  2331     9 
 2327  2329  2330  2339     9 
 2329  2330  2331  2332     9 
 2329  2330  2331  2335     9 
 2339  2330  2331  2332     9 
 2339  2330  2331  2335     9 
 2329  2330  2339  2326     9 
 2329  2330  2339  2338     9 
 2331  2330  2339  2326     9 
 2331  2330  2339  2338     9 
 2330  2331  2332  2333     9 
 2330  2331  2332  2334     9 
 2335  2331  2332  2333     9 
 2335  2331  2332  2334     9 
 2330  2331  2335  2336     9 
 2332  2331  2335  2336     9 
 2331  2335  2336  2337     9 
 2331  2335  2336  2338     9 
 2335  2336  2338  2339     9 
 2337  2336  2338  2339     9 
 2336  2338  2339  2326     9 
 2336  2338  2339  2330     9 
 2321  2340  2342  2324     9 
 2321  2340  2342  2343     9 
 2321  2340  2342  2344     9 
 2341  2340  2342  2324     9 
 2341  2340  2342  2343     9 
 2341  2340  2342  2344     9 
 2345  2340  2342  2324     9 
 2345  2340  2342  2343     9 
 2345  2340  2342  2344     9 
 2321  2340  2345  2346     9 
 2341  2340  2345  2346     9 
 2342  2340  2345  2346     9 
 2340  2345  2346  2347     9 
 2340  2345  2346  2348     9 
 2340  2345  2346  2349     9 
 2345  2346  2349  2350     9 
 2347  2346  2349  2350     9 
 2348  2346  2349  2350     9 
 2346  2349  2350  2351     9 
 2346  2349  2350  2352     9 
 2346  2349  2350  2353     9 
 2349  2350  2353  2354     9 
 2349  2350  2353  2355     9 
 2349  2350  2353  2373     9 
 2351  2350  2353  2354     9 
 2351  2350  2353  2355     9 
 2351  2350  2353  2373     9 
 2352  2350  2353  2354     9 
 2352  2350  2353  2355     9 
 2352  2350  2353  2373     9 
 2350  2353  2355  2356     9 
 2354  2353  2355  2356     9 
 2373  2353  2355  2356     9 
 2350  2353  2373  2374     9 
 2350  2353  2373  2375     9 
 2350  2353  2373  2378     9 
 2354  2353  2373  2374     9 
 2354  2353  2373  2375     9 
 2354  2353  2373  2378     9 
 2355  2353  2373  2374     9 
 2355  2353  2373  2375     9 
 2355  2353  2373  2378     9 
 2353  2355  2356  2357     9 
 2353  2355  2356  2358     9 
 2353  2355  2356  2375     9 
 2355  2356  2358  2359     9 
 2355  2356  2358  2372     9 
 2357  2356  2358  2359     9 
 2357  2356  2358  2372     9 
 2375  2356  2358  2359     9 
 2375  2356  2358  2372     9 
 2355  2356  2375  2373     9 
 2355  2356  2375  2376     9 
 2355  2356  2375  2377     9 
 2357  2356  2375  2373     9 
 2357  2356  2375  2376     9 
 2357  2356  2375  2377     9 
 2358  2356  2375  2373     9 
 2358  2356  2375  2376     9 
 2358  2356  2375  2377     9 
 2356  2358  2359  2360     9 
 2356  2358  2359  2361     9 
 2372  2358  2359  2360     9 
 2372  2358  2359  2361     9 
 2356  2358  2372  2362     9 
 2356  2358  2372  2371     9 
 2359  2358  2372  2362     9 
 2359  2358  2372  2371     9 
 2358  2359  2361  2362     9 
 2360  2359  2361  2362     9 
 2359  2361  2362  2363     9 
 2359  2361  2362  2372     9 
 2361  2362  2363  2364     9 
 2361  2362  2363  2365     9 
 2372  2362  2363  2364     9 
 2372  2362  2363  2365     9 
 2361  2362  2372  2358     9 
 2361  2362  2372  2371     9 
 2363  2362  2372  2358     9 
 2363  2362  2372  2371     9 
 2362  2363  2365  2366     9 
 2362  2363  2365  2367     9 
 2364  2363  2365  2366     9 
 2364  2363  2365  2367     9 
 2363  2365  2367  2368     9 
 2363  2365  2367  2371     9 
 2366  2365  2367  2368     9 
 2366  2365  2367  2371     9 
 2365  2367  2368  2369     9 
 2365  2367  2368  2370     9 
 2371  2367  2368  2369     9 
 2371  2367  2368  2370     9 
 2365  2367  2371  2372     9 
 2368  2367  2371  2372     9 
 2367  2371  2372  2358     9 
 2367  2371  2372  2362     9 
 2353  2373  2375  2356     9 
 2353  2373  2375  2376     9 
 2353  2373  2375  2377     9 
 2374  2373  2375  2356     9 
 2374  2373  2375  2376     9 
 2374  2373  2375  2377     9 
 2378  2373  2375  2356     9 
 2378  2373  2375  2376     9 
 2378  2373  2375  2377     9 
 2353  2373  2378  2379     9 
 2374  2373  2378  2379     9 
 2375  2373  2378  2379     9 
 2373  2378  2379  2380     9 
 2373  2378  2379  2381     9 
 2373  2378  2379  2382     9 
 2378  2379  2382  2383     9 
 2380  2379  2382  2383     9 
 2381  2379  2382  2383     9 
 2379  2382  2383  2384     9 
 2379  2382  2383  2385     9 
 2379  2382  2383  2386     9 
 2382  2383  2386  2387     9 
 2382  2383  2386  2388     9 
 2382  2383  2386  2403     9 
 2384  2383  2386  2387     9 
 2384  2383  2386  2388     9 
 2384  2383  2386  2403     9 
 2385  2383  2386  2387     9 
 2385  2383  2386  2388     9 
 2385  2383  2386  2403     9 
 2383  2386  2388  2389     9 
 2387  2386  2388  2389     9 
 2403  2386  2388  2389     9 
 2383  2386  2403  2404     9 
 2383  2386  2403  2405     9 
 2383  2386  2403  2408     9 
 2387  2386  2403  2404     9 
 2387  2386  2403  2405     9 
 2387  2386  2403  2408     9 
 2388  2386  2403  2404     9 
 2388  2386  2403  2405     9 
 2388  2386  2403  2408     9 
 2386  2388  2389  2390     9 
 2386  2388  2389  2391     9 
 2386  2388  2389  2405     9 
 2388  2389  2391  2392     9 
 2388  2389  2391  2401     9 
 2390  2389  2391  2392     9 
 2390  2389  2391  2401     9 
 2405  2389  2391  2392     9 
 2405  2389  2391  2401     9 
 2388  2389  2405  2403     9 
 2388  2389  2405  2406     9 
 2388  2389  2405  2407     9 
 2390  2389  2405  2403     9 
 2390  2389  2405  2406     9 
 2390  2389  2405  2407     9 
 2391  2389  2405  2403     9 
 2391  2389  2405  2406     9 
 2391  2389  2405  2407     9 
 2389  2391  2392  2393     9 
 2389  2391  2392  2394     9 
 2401  2391  2392  2393     9 
 2401  2391  2392  2394     9 
 2389  2391  2401  2400     9 
 2389  2391  2401  2402     9 
 2392  2391  2401  2400     9 
 2392  2391  2401  2402     9 
 2391  2392  2394  2395     9 
 2391  2392  2394  2396     9 
 2393  2392  2394  2395     9 
 2393  2392  2394  2396     9 
 2392  2394  2396  2397     9 
 2392  2394  2396  2400     9 
 2395  2394  2396  2397     9 
 2395  2394  2396  2400     9 
 2394  2396  2397  2398     9 
 2394  2396  2397  2399     9 
 2400  2396  2397  2398     9 
 2400  2396  2397  2399     9 
 2394  2396  2400  2401     9 
 2397  2396  2400  2401     9 
 2396  2400  2401  2391     9 
 2396  2400  2401  2402     9 
 2386  2403  2405  2389     9 
 2386  2403  2405  2406     9 
 2386  2403  2405  2407     9 
 2404  2403  2405  2389     9 
 2404  2403  2405  2406     9 
 2404  2403  2405  2407     9 
 2408  2403  2405  2389     9 
 2408  2403  2405  2406     9 
 2408  2403  2405  2407     9 
 2386  2403  2408  2409     9 
 2404  2403  2408  2409     9 
 2405  2403  2408  2409     9 
 2403  2408  2409  2410     9 
 2403  2408  2409  2411     9 
 2403  2408  2409  2412     9 
 2408  2409  2412  2413     9 
 2410  2409  2412  2413     9 
 2411  2409  2412  2413     9 
 2409  2412  2413  2414     9 
 2409  2412  2413  2415     9 
 2409  2412  2413  2416     9 
 2412  2413  2416  2417     9 
 2412  2413  2416  2418     9 
 2412  2413  2416  2436     9 
 2414  2413  2416  2417     9 
 2414  2413  2416  2418     9 
 2414  2413  2416  2436     9 
 2415  2413  2416  2417     9 
 2415  2413  2416  2418     9 
 2415  2413  2416  2436     9 
 2413  2416  2418  2419     9 
 2417  2416  2418  2419     9 
 2436  2416  2418  2419     9 
 2413  2416  2436  2437     9 
 2413  2416  2436  2438     9 
 2413  2416  2436  2441     9 
 2417  2416  2436  2437     9 
 2417  2416  2436  2438     9 
 2417  2416  2436  2441     9 
 2418  2416  2436  2437     9 
 2418  2416  2436  2438     9 
 2418  2416  2436  2441     9 
 2416  2418  2419  2420     9 
 2416  2418  2419  2421     9 
 2416  2418  2419  2438     9 
 2418  2419  2421  2422     9 
 2418  2419  2421  2435     9 
 2420  2419  2421  2422     9 
 2420  2419  2421  2435     9 
 2438  2419  2421  2422     9 
 2438  2419  2421  2435     9 
 2418  2419  2438  2436     9 
 2418  2419  2438  2439     9 
 2418  2419  2438  2440     9 
 2420  2419  2438  2436     9 
 2420  2419  2438  2439     9 
 2420  2419  2438  2440     9 
 2421  2419  2438  2436     9 
 2421  2419  2438  2439     9 
 2421  2419  2438  2440     9 
 2419  2421  2422  2423     9 
 2419  2421  2422  2424     9 
 2435  2421  2422  2423     9 
 2435  2421  2422  2424     9 
 2419  2421  2435  2425     9 
 2419  2421  2435  2434     9 
 2422  2421  2435  2425     9 
 2422  2421  2435  2434     9 
 2421  2422  2424  2425     9 
 2423  2422  2424  2425     9 
 2422  2424  2425  2426     9 
 2422  2424  2425  2435     9 
 2424  2425  2426  2427     9 
 2424  2425  2426  2428     9 
 2435  2425  2426  2427     9 
 2435  2425  2426  2428     9 
 2424  2425  2435  2421     9 
 2424  2425  2435  2434     9 
 2426  2425  2435  2421     9 
 2426  2425  2435  2434     9 
 2425  2426  2428  2429     9 
 2425  2426  2428  2430     9 
 2427  2426  2428  2429     9 
 2427  2426  2428  2430     9 
 2426  2428  2430  2431     9 
 2426  2428  2430  2434     9 
 2429  2428  2430  2431     9 
 2429  2428  2430  2434     9 
 2428  2430  2431  2432     9 
 2428  2430  2431  2433     9 
 2434  2430  2431  2432     9 
 2434  2430  2431  2433     9 
 2428  2430  2434  2435     9 
 2431  2430  2434  2435     9 
 2430  2434  2435  2421     9 
 2430  2434  2435  2425     9 
 2416  2436  2438  2419     9 
 2416  2436  2438  2439     9 
 2416  2436  2438  2440     9 
 2437  2436  2438  2419     9 
 2437  2436  2438  2439     9 
 2437  2436  2438  2440     9 
 2441  2436  2438  2419     9 
 2441  2436  2438  2439     9 
 2441  2436  2438  2440     9 
 2416  2436  2441  2442     9 
 2437  2436  2441  2442     9 
 2438  2436  2441  2442     9 
 2436  2441  2442  2443     9 
 2436  2441  2442  2444     9 
 2436  2441  2442  2445     9 
 2441  2442  2445  2446     9 
 2443  2442  2445  2446     9 
 2444  2442  2445  2446     9 
 2442  2445  2446  2447     9 
 2442  2445  2446  2448     9 
 2442  2445  2446  2449     9 
 2445  2446  2449  2450     9 
 2445  2446  2449  2451     9 
 2445  2446  2449  2469     9 
 2447  2446  2449  2450     9 
 2447  2446  2449  2451     9 
 2447  2446  2449  2469     9 
 2448  2446  2449  2450     9 
 2448  2446  2449  2451     9 
 2448  2446  2449  2469     9 
 2446  2449  2451  2452     9 
 2450  2449  2451  2452     9 
 2469  2449  2451  2452     9 
 2446  2449  2469  2470     9 
 2446  2449  2469  2471     9 
 2446  2449  2469  2474     9 
 2450  2449  2469  2470     9 
 2450  2449  2469  2471     9 
 2450  2449  2469  2474     9 
 2451  2449  2469  2470     9 
 2451  2449  2469  2471     9 
 2451  2449  2469  2474     9 
 2449  2451  2452  2453     9 
 2449  2451  2452  2454     9 
 2449  2451  2452  2471     9 
 2451  2452  2454  2455     9 
 2451  2452  2454  2468     9 
 2453  2452  2454  2455     9 
 2453  2452  2454  2468     9 
 2471  2452  2454  2455     9 
 2471  2452  2454  2468     9 
 2451  2452  2471  2469     9 
 2451  2452  2471  2472     9 
 2451  2452  2471  2473     9 
 2453  2452  2471  2469     9 
 2453  2452  2471  2472     9 
 2453  2452  2471  2473     9 
 2454  2452  2471  2469     9 
 2454  2452  2471  2472     9 
 2454  2452  2471  2473     9 
 2452  2454  2455  2456     9 
 2452  2454  2455  2457     9 
 2468  2454  2455  2456     9 
 2468  2454  2455  2457     9 
 2452  2454  2468  2458     9 
 2452  2454  2468  2467     9 
 2455  2454  2468  2458     9 
 2455  2454  2468  2467     9 
 2454  2455  2457  2458     9 
 2456  2455  2457  2458     9 
 2455  2457  2458  2459     9 
 2455  2457  2458  2468     9 
 2457  2458  2459  2460     9 
 2457  2458  2459  2461     9 
 2468  2458  2459  2460     9 
 2468  2458  2459  2461     9 
 2457  2458  2468  2454     9 
 2457  2458  2468  2467     9 
 2459  2458  2468  2454     9 
 2459  2458  2468  2467     9 
 2458  2459  2461  2462     9 
 2458  2459  2461  2463     9 
 2460  2459  2461  2462     9 
 2460  2459  2461  2463     9 
 2459  2461  2463  2464     9 
 2459  2461  2463  2467     9 
 2462  2461  2463  2464     9 
 2462  2461  2463  2467     9 
 2461  2463  2464  2465     9 
 2461  2463  2464  2466     9 
 2467  2463  2464  2465     9 
 2467  2463  2464  2466     9 
 2461  2463  2467  2468     9 
 2464  2463  2467  2468     9 
 2463  2467  2468  2454     9 
 2463  2467  2468  2458     9 
 2449  2469  2471  2452     9 
 2449  2469  2471  2472     9 
 2449  2469  2471  2473     9 
 2470  2469  2471  2452     9 
 2470  2469  2471  2472     9 
 2470  2469  2471  2473     9 
 2474  2469  2471  2452     9 
 2474  2469  2471  2472     9 
 2474  2469  2471  2473     9 
 2449  2469  2474  2475     9 
 2470  2469  2474  2475     9 
 2471  2469  2474  2475     9 
 2469  2474  2475  2476     9 
 2469  2474  2475  2477     9 
 2469  2474  2475  2478     9 
 2474  2475  2478  2479     9 
 2476  2475  2478  2479     9 
 2477  2475  2478  2479     9 
 2475  2478  2479  2480     9 
 2475  2478  2479  2481     9 
 2475  2478  2479  2482     9 
 2478  2479  2482  2483     9 
 2478  2479  2482  2484     9 
 2478  2479  2482  2499     9 
 2480  2479  2482  2483     9 
 2480  2479  2482  2484     9 
 2480  2479  2482  2499     9 
 2481  2479  2482  2483     9 
 2481  2479  2482  2484     9 
 2481  2479  2482  2499     9 
 2479  2482  2484  2485     9 
 2483  2482  2484  2485     9 
 2499  2482  2484  2485     9 
 2479  2482  2499  2500     9 
 2479  2482  2499  2501     9 
 2479  2482  2499  2504     9 
 2483  2482  2499  2500     9 
 2483  2482  2499  2501     9 
 2483  2482  2499  2504     9 
 2484  2482  2499  2500     9 
 2484  2482  2499  2501     9 
 2484  2482  2499  2504     9 
 2482  2484  2485  2486     9 
 2482  2484  2485  2487     9 
 2482  2484  2485  2501     9 
 2484  2485  2487  2488     9 
 2484  2485  2487  2497     9 
 2486  2485  2487  2488     9 
 2486  2485  2487  2497     9 
 2501  2485  2487  2488     9 
 2501  2485  2487  2497     9 
 2484  2485  2501  2499     9 
 2484  2485  2501  2502     9 
 2484  2485  2501  2503     9 
 2486  2485  2501  2499     9 
 2486  2485  2501  2502     9 
 2486  2485  2501  2503     9 
 2487  2485  2501  2499     9 
 2487  2485  2501  2502     9 
 2487  2485  2501  2503     9 
 2485  2487  2488  2489     9 
 2485  2487  2488  2490     9 
 2497  2487  2488  2489     9 
 2497  2487  2488  2490     9 
 2485  2487  2497  2496     9 
 2485  2487  2497  2498     9 
 2488  2487  2497  2496     9 
 2488  2487  2497  2498     9 
 2487  2488  2490  2491     9 
 2487  2488  2490  2492     9 
 2489  2488  2490  2491     9 
 2489  2488  2490  2492     9 
 2488  2490  2492  2493     9 
 2488  2490  2492  2496     9 
 2491  2490  2492  2493     9 
 2491  2490  2492  2496     9 
 2490  2492  2493  2494     9 
 2490  2492  2493  2495     9 
 2496  2492  2493  2494     9 
 2496  2492  2493  2495     9 
 2490  2492  2496  2497     9 
 2493  2492  2496  2497     9 
 2492  2496  2497  2487     9 
 2492  2496  2497  2498     9 
 2482  2499  2501  2485     9 
 2482  2499  2501  2502     9 
 2482  2499  2501  2503     9 
 2500  2499  2501  2485     9 
 2500  2499  2501  2502     9 
 2500  2499  2501  2503     9 
 2504  2499  2501  2485     9 
 2504  2499  2501  2502     9 
 2504  2499  2501  2503     9 
 2482  2499  2504  2505     9 
 2500  2499  2504  2505     9 
 2501  2499  2504  2505     9 
 2499  2504  2505  2506     9 
 2499  2504  2505  2507     9 
 2499  2504  2505  2508     9 
 2504  2505  2508  2509     9 
 2506  2505  2508  2509     9 
 2507  2505  2508  2509     9 
 2505  2508  2509  2510     9 
 2505  2508  2509  2511     9 
 2505  2508  2509  2512     9 
 2508  2509  2512  2513     9 
 2508  2509  2512  2514     9 
 2508  2509  2512  2531     9 
 2510  2509  2512  2513     9 
 2510  2509  2512  2514     9 
 2510  2509  2512  2531     9 
 2511  2509  2512  2513     9 
 2511  2509  2512  2514     9 
 2511  2509  2512  2531     9 
 2509  2512  2514  2515     9 
 2513  2512  2514  2515     9 
 2531  2512  2514  2515     9 
 2509  2512  2531  2532     9 
 2509  2512  2531  2533     9 
 2509  2512  2531  2536     9 
 2513  2512  2531  2532     9 
 2513  2512  2531  2533     9 
 2513  2512  2531  2536     9 
 2514  2512  2531  2532     9 
 2514  2512  2531  2533     9 
 2514  2512  2531  2536     9 
 2512  2514  2515  2516     9 
 2512  2514  2515  2517     9 
 2512  2514  2515  2533     9 
 2514  2515  2517  2518     9 
 2514  2515  2517  2529     9 
 2516  2515  2517  2518     9 
 2516  2515  2517  2529     9 
 2533  2515  2517  2518     9 
 2533  2515  2517  2529     9 
 2514  2515  2533  2531     9 
 2514  2515  2533  2534     9 
 2514  2515  2533  2535     9 
 2516  2515  2533  2531     9 
 2516  2515  2533  2534     9 
 2516  2515  2533  2535     9 
 2517  2515  2533  2531     9 
 2517  2515  2533  2534     9 
 2517  2515  2533  2535     9 
 2515  2517  2518  2519     9 
 2515  2517  2518  2520     9 
 2529  2517  2518  2519     9 
 2529  2517  2518  2520     9 
 2515  2517  2529  2527     9 
 2515  2517  2529  2530     9 
 2518  2517  2529  2527     9 
 2518  2517  2529  2530     9 
 2517  2518  2520  2521     9 
 2517  2518  2520  2525     9 
 2519  2518  2520  2521     9 
 2519  2518  2520  2525     9 
 2518  2520  2521  2522     9 
 2518  2520  2521  2523     9 
 2518  2520  2521  2524     9 
 2525  2520  2521  2522     9 
 2525  2520  2521  2523     9 
 2525  2520  2521  2524     9 
 2518  2520  2525  2526     9 
 2518  2520  2525  2527     9 
 2521  2520  2525  2526     9 
 2521  2520  2525  2527     9 
 2520  2525  2527  2528     9 
 2520  2525  2527  2529     9 
 2526  2525  2527  2528     9 
 2526  2525  2527  2529     9 
 2525  2527  2529  2517     9 
 2525  2527  2529  2530     9 
 2528  2527  2529  2517     9 
 2528  2527  2529  2530     9 
 2512  2531  2533  2515     9 
 2512  2531  2533  2534     9 
 2512  2531  2533  2535     9 
 2532  2531  2533  2515     9 
 2532  2531  2533  2534     9 
 2532  2531  2533  2535     9 
 2536  2531  2533  2515     9 
 2536  2531  2533  2534     9 
 2536  2531  2533  2535     9 
 2512  2531  2536  2537     9 
 2532  2531  2536  2537     9 
 2533  2531  2536  2537     9 
 2531  2536  2537  2538     9 
 2531  2536  2537  2539     9 
 2531  2536  2537  2540     9 
 2536  2537  2540  2541     9 
 2538  2537  2540  2541     9 
 2539  2537  2540  2541     9 
 2537  2540  2541  2542     9 
 2537  2540  2541  2543     9 
 2537  2540  2541  2544     9 
 2540  2541  2544  2545     9 
 2540  2541  2544  2546     9 
 2540  2541  2544  2561     9 
 2542  2541  2544  2545     9 
 2542  2541  2544  2546     9 
 2542  2541  2544  2561     9 
 2543  2541  2544  2545     9 
 2543  2541  2544  2546     9 
 2543  2541  2544  2561     9 
 2541  2544  2546  2547     9 
 2545  2544  2546  2547     9 
 2561  2544  2546  2547     9 
 2541  2544  2561  2562     9 
 2541  2544  2561  2563     9 
 2541  2544  2561  2566     9 
 2545  2544  2561  2562     9 
 2545  2544  2561  2563     9 
 2545  2544  2561  2566     9 
 2546  2544  2561  2562     9 
 2546  2544  2561  2563     9 
 2546  2544  2561  2566     9 
 2544  2546  2547  2548     9 
 2544  2546  2547  2549     9 
 2544  2546  2547  2563     9 
 2546  2547  2549  2550     9 
 2546  2547  2549  2559     9 
 2548  2547  2549  2550     9 
 2548  2547  2549  2559     9 
 2563  2547  2549  2550     9 
 2563  2547  2549  2559     9 
 2546  2547  2563  2561     9 
 2546  2547  2563  2564     9 
 2546  2547  2563  2565     9 
 2548  2547  2563  2561     9 
 2548  2547  2563  2564     9 
 2548  2547  2563  2565     9 
 2549  2547  2563  2561     9 
 2549  2547  2563  2564     9 
 2549  2547  2563  2565     9 
 2547  2549  2550  2551     9 
 2547  2549  2550  2552     9 
 2559  2549  2550  2551     9 
 2559  2549  2550  2552     9 
 2547  2549  2559  2558     9 
 2547  2549  2559  2560     9 
 2550  2549  2559  2558     9 
 2550  2549  2559  2560     9 
 2549  2550  2552  2553     9 
 2549  2550  2552  2554     9 
 2551  2550  2552  2553     9 
 2551  2550  2552  2554     9 
 2550  2552  2554  2555     9 
 2550  2552  2554  2558     9 
 2553  2552  2554  2555     9 
 2553  2552  2554  2558     9 
 2552  2554  2555  2556     9 
 2552  2554  2555  2557     9 
 2558  2554  2555  2556     9 
 2558  2554  2555  2557     9 
 2552  2554  2558  2559     9 
 2555  2554  2558  2559     9 
 2554  2558  2559  2549     9 
 2554  2558  2559  2560     9 
 2544  2561  2563  2547     9 
 2544  2561  2563  2564     9 
 2544  2561  2563  2565     9 
 2562  2561  2563  2547     9 
 2562  2561  2563  2564     9 
 2562  2561  2563  2565     9 
 2566  2561  2563  2547     9 
 2566  2561  2563  2564     9 
 2566  2561  2563  2565     9 
 2544  2561  2566  2567     9 
 2562  2561  2566  2567     9 
 2563  2561  2566  2567     9 
 2561  2566  2567  2568     9 
 2561  2566  2567  2569     9 
 2561  2566  2567  2570     9 
 2566  2567  2570  2571     9 
 2568  2567  2570  2571     9 
 2569  2567  2570  2571     9 
 2567  2570  2571  2572     9 
 2567  2570  2571  2573     9 
 2567  2570  2571  2574     9 
 2570  2571  2574  2575     9 
 2570  2571  2574  2576     9 
 2570  2571  2574  2591     9 
 2572  2571  2574  2575     9 
 2572  2571  2574  2576     9 
 2572  2571  2574  2591     9 
 2573  2571  2574  2575     9 
 2573  2571  2574  2576     9 
 2573  2571  2574  2591     9 
 2571  2574  2576  2577     9 
 2575  2574  2576  2577     9 
 2591  2574  2576  2577     9 
 2571  2574  2591  2592     9 
 2571  2574  2591  2593     9 
 2571  2574  2591  2596     9 
 2575  2574  2591  2592     9 
 2575  2574  2591  2593     9 
 2575  2574  2591  2596     9 
 2576  2574  2591  2592     9 
 2576  2574  2591  2593     9 
 2576  2574  2591  2596     9 
 2574  2576  2577  2578     9 
 2574  2576  2577  2579     9 
 2574  2576  2577  2593     9 
 2576  2577  2579  2580     9 
 2576  2577  2579  2589     9 
 2578  2577  2579  2580     9 
 2578  2577  2579  2589     9 
 2593  2577  2579  2580     9 
 2593  2577  2579  2589     9 
 2576  2577  2593  2591     9 
 2576  2577  2593  2594     9 
 2576  2577  2593  2595     9 
 2578  2577  2593  2591     9 
 2578  2577  2593  2594     9 
 2578  2577  2593  2595     9 
 2579  2577  2593  2591     9 
 2579  2577  2593  2594     9 
 2579  2577  2593  2595     9 
 2577  2579  2580  2581     9 
 2577  2579  2580  2582     9 
 2589  2579  2580  2581     9 
 2589  2579  2580  2582     9 
 2577  2579  2589  2588     9 
 2577  2579  2589  2590     9 
 2580  2579  2589  2588     9 
 2580  2579  2589  2590     9 
 2579  2580  2582  2583     9 
 2579  2580  2582  2584     9 
 2581  2580  2582  2583     9 
 2581  2580  2582  2584     9 
 2580  2582  2584  2585     9 
 2580  2582  2584  2588     9 
 2583  2582  2584  2585     9 
 2583  2582  2584  2588     9 
 2582  2584  2585  2586     9 
 2582  2584  2585  2587     9 
 2588  2584  2585  2586     9 
 2588  2584  2585  2587     9 
 2582  2584  2588  2589     9 
 2585  2584  2588  2589     9 
 2584  2588  2589  2579     9 
 2584  2588  2589  2590     9 
 2574  2591  2593  2577     9 
 2574  2591  2593  2594     9 
 2574  2591  2593  2595     9 
 2592  2591  2593  2577     9 
 2592  2591  2593  2594     9 
 2592  2591  2593  2595     9 
 2596  2591  2593  2577     9 
 2596  2591  2593  2594     9 
 2596  2591  2593  2595     9 
 2574  2591  2596  2597     9 
 2592  2591  2596  2597     9 
 2593  2591  2596  2597     9 
 2591  2596  2597  2598     9 
 2591  2596  2597  2599     9 
 2591  2596  2597  2600     9 
 2596  2597  2600  2601     9 
 2598  2597  2600  2601     9 
 2599  2597  2600  2601     9 
 2597  2600  2601  2602     9 
 2597  2600  2601  2603     9 
 2597  2600  2601  2604     9 
 2600  2601  2604  2605     9 
 2600  2601  2604  2606     9 
 2600  2601  2604  2621     9 
 2602  2601  2604  2605     9 
 2602  2601  2604  2606     9 
 2602  2601  2604  2621     9 
 2603  2601  2604  2605     9 
 2603  2601  2604  2606     9 
 2603  2601  2604  2621     9 
 2601  2604  2606  2607     9 
 2605  2604  2606  2607     9 
 2621  2604  2606  2607     9 
 2601  2604  2621  2622     9 
 2601  2604  2621  2623     9 
 2601  2604  2621  2626     9 
 2605  2604  2621  2622     9 
 2605  2604  2621  2623     9 
 2605  2604  2621  2626     9 
 2606  2604  2621  2622     9 
 2606  2604  2621  2623     9 
 2606  2604  2621  2626     9 
 2604  2606  2607  2608     9 
 2604  2606  2607  2609     9 
 2604  2606  2607  2623     9 
 2606  2607  2609  2610     9 
 2606  2607  2609  2619     9 
 2608  2607  2609  2610     9 
 2608  2607  2609  2619     9 
 2623  2607  2609  2610     9 
 2623  2607  2609  2619     9 
 2606  2607  2623  2621     9 
 2606  2607  2623  2624     9 
 2606  2607  2623  2625     9 
 2608  2607  2623  2621     9 
 2608  2607  2623  2624     9 
 2608  2607  2623  2625     9 
 2609  2607  2623  2621     9 
 2609  2607  2623  2624     9 
 2609  2607  2623  2625     9 
 2607  2609  2610  2611     9 
 2607  2609  2610  2612     9 
 2619  2609  2610  2611     9 
 2619  2609  2610  2612     9 
 2607  2609  2619  2618     9 
 2607  2609  2619  2620     9 
 2610  2609  2619  2618     9 
 2610  2609  2619  2620     9 
 2609  2610  2612  2613     9 
 2609  2610  2612  2614     9 
 2611  2610  2612  2613     9 
 2611  2610  2612  2614     9 
 2610  2612  2614  2615     9 
 2610  2612  2614  2618     9 
 2613  2612  2614  2615     9 
 2613  2612  2614  2618     9 
 2612  2614  2615  2616     9 
 2612  2614  2615  2617     9 
 2618  2614  2615  2616     9 
 2618  2614  2615  2617     9 
 2612  2614  2618  2619     9 
 2615  2614  2618  2619     9 
 2614  2618  2619  2609     9 
 2614  2618  2619  2620     9 
 2604  2621  2623  2607     9 
 2604  2621  2623  2624     9 
 2604  2621  2623  2625     9 
 2622  2621  2623  2607     9 
 2622  2621  2623  2624     9 
 2622  2621  2623  2625     9 
 2626  2621  2623  2607     9 
 2626  2621  2623  2624     9 
 2626  2621  2623  2625     9 
 2604  2621  2626  2627     9 
 2622  2621  2626  2627     9 
 2623  2621  2626  2627     9 
 2621  2626  2627  2628     9 
 2621  2626  2627  2629     9 
 2621  2626  2627  2630     9 
 2626  2627  2630  2631     9 
 2628  2627  2630  2631     9 
 2629  2627  2630  2631     9 
 2627  2630  2631  2632     9 
 2627  2630  2631  2633     9 
 2627  2630  2631  2634     9 
 2630  2631  2634  2635     9 
 2630  2631  2634  2636     9 
 2630  2631  2634  2653     9 
 2632  2631  2634  2635     9 
 2632  2631  2634  2636     9 
 2632  2631  2634  2653     9 
 2633  2631  2634  2635     9 
 2633  2631  2634  2636     9 
 2633  2631  2634  2653     9 
 2631  2634  2636  2637     9 
 2635  2634  2636  2637     9 
 2653  2634  2636  2637     9 
 2631  2634  2653  2654     9 
 2631  2634  2653  2655     9 
 2631  2634  2653  2658     9 
 2635  2634  2653  2654     9 
 2635  2634  2653  2655     9 
 2635  2634  2653  2658     9 
 2636  2634  2653  2654     9 
 2636  2634  2653  2655     9 
 2636  2634  2653  2658     9 
 2634  2636  2637  2638     9 
 2634  2636  2637  2639     9 
 2634  2636  2637  2655     9 
 2636  2637  2639  2640     9 
 2636  2637  2639  2652     9 
 2638  2637  2639  2640     9 
 2638  2637  2639  2652     9 
 2655  2637  2639  2640     9 
 2655  2637  2639  2652     9 
 2636  2637  2655  2653     9 
 2636  2637  2655  2656     9 
 2636  2637  2655  2657     9 
 2638  2637  2655  2653     9 
 2638  2637  2655  2656     9 
 2638  2637  2655  2657     9 
 2639  2637  2655  2653     9 
 2639  2637  2655  2656     9 
 2639  2637  2655  2657     9 
 2637  2639  2640  2641     9 
 2637  2639  2640  2642     9 
 2652  2639  2640  2641     9 
 2652  2639  2640  2642     9 
 2637  2639  2652  2643     9 
 2637  2639  2652  2651     9 
 2640  2639  2652  2643     9 
 2640  2639  2652  2651     9 
 2639  2640  2642  2643     9 
 2641  2640  2642  2643     9 
 2640  2642  2643  2644     9 
 2640  2642  2643  2652     9 
 2642  2643  2644  2645     9 
 2642  2643  2644  2648     9 
 2652  2643  2644  2645     9 
 2652  2643  2644  2648     9 
 2642  2643  2652  2639     9 
 2642  2643  2652  2651     9 
 2644  2643  2652  2639     9 
 2644  2643  2652  2651     9 
 2643  2644  2645  2646     9 
 2643  2644  2645  2647     9 
 2648  2644  2645  2646     9 
 2648  2644  2645  2647     9 
 2643  2644  2648  2649     9 
 2645  2644  2648  2649     9 
 2644  2648  2649  2650     9 
 2644  2648  2649  2651     9 
 2648  2649  2651  2652     9 
 2650  2649  2651  2652     9 
 2649  2651  2652  2639     9 
 2649  2651  2652  2643     9 
 2634  2653  2655  2637     9 
 2634  2653  2655  2656     9 
 2634  2653  2655  2657     9 
 2654  2653  2655  2637     9 
 2654  2653  2655  2656     9 
 2654  2653  2655  2657     9 
 2658  2653  2655  2637     9 
 2658  2653  2655  2656     9 
 2658  2653  2655  2657     9 
 2634  2653  2658  2659     9 
 2654  2653  2658  2659     9 
 2655  2653  2658  2659     9 
 2653  2658  2659  2660     9 
 2653  2658  2659  2661     9 
 2653  2658  2659  2662     9 
 2658  2659  2662  2663     9 
 2660  2659  2662  2663     9 
 2661  2659  2662  2663     9 
 2659  2662  2663  2664     9 
 2659  2662  2663  2665     9 
 2659  2662  2663  2666     9 
 2662  2663  2666  2667     9 
 2662  2663  2666  2668     9 
 2662  2663  2666  2686     9 
 2664  2663  2666  2667     9 
 2664  2663  2666  2668     9 
 2664  2663  2666  2686     9 
 2665  2663  2666  2667     9 
 2665  2663  2666  2668     9 
 2665  2663  2666  2686     9 
 2663  2666  2668  2669     9 
 2667  2666  2668  2669     9 
 2686  2666  2668  2669     9 
 2663  2666  2686  2687     9 
 2663  2666  2686  2688     9 
 2663  2666  2686  2691     9 
 2667  2666  2686  2687     9 
 2667  2666  2686  2688     9 
 2667  2666  2686  2691     9 
 2668  2666  2686  2687     9 
 2668  2666  2686  2688     9 
 2668  2666  2686  2691     9 
 2666  2668  2669  2670     9 
 2666  2668  2669  2671     9 
 2666  2668  2669  2688     9 
 2668  2669  2671  2672     9 
 2668  2669  2671  2685     9 
 2670  2669  2671  2672     9 
 2670  2669  2671  2685     9 
 2688  2669  2671  2672     9 
 2688  2669  2671  2685     9 
 2668  2669  2688  2686     9 
 2668  2669  2688  2689     9 
 2668  2669  2688  2690     9 
 2670  2669  2688  2686     9 
 2670  2669  2688  2689     9 
 2670  2669  2688  2690     9 
 2671  2669  2688  2686     9 
 2671  2669  2688  2689     9 
 2671  2669  2688  2690     9 
 2669  2671  2672  2673     9 
 2669  2671  2672  2674     9 
 2685  2671  2672  2673     9 
 2685  2671  2672  2674     9 
 2669  2671  2685  2675     9 
 2669  2671  2685  2684     9 
 2672  2671  2685  2675     9 
 2672  2671  2685  2684     9 
 2671  2672  2674  2675     9 
 2673  2672  2674  2675     9 
 2672  2674  2675  2676     9 
 2672  2674  2675  2685     9 
 2674  2675  2676  2677     9 
 2674  2675  2676  2678     9 
 2685  2675  2676  2677     9 
 2685  2675  2676  2678     9 
 2674  2675  2685  2671     9 
 2674  2675  2685  2684     9 
 2676  2675  2685  2671     9 
 2676  2675  2685  2684     9 
 2675  2676  2678  2679     9 
 2675  2676  2678  2680     9 
 2677  2676  2678  2679     9 
 2677  2676  2678  2680     9 
 2676  2678  2680  2681     9 
 2676  2678  2680  2684     9 
 2679  2678  2680  2681     9 
 2679  2678  2680  2684     9 
 2678  2680  2681  2682     9 
 2678  2680  2681  2683     9 
 2684  2680  2681  2682     9 
 2684  2680  2681  2683     9 
 2678  2680  2684  2685     9 
 2681  2680  2684  2685     9 
 2680  2684  2685  2671     9 
 2680  2684  2685  2675     9 
 2666  2686  2688  2669     9 
 2666  2686  2688  2689     9 
 2666  2686  2688  2690     9 
 2687  2686  2688  2669     9 
 2687  2686  2688  2689     9 
 2687  2686  2688  2690     9 
 2691  2686  2688  2669     9 
 2691  2686  2688  2689     9 
 2691  2686  2688  2690     9 
 2666  2686  2691  2692     9 
 2687  2686  2691  2692     9 
 2688  2686  2691  2692     9 
 2686  2691  2692  2693     9 
 2686  2691  2692  2694     9 
 2686  2691  2692  2695     9 
 2691  2692  2695  2696     9 
 2693  2692  2695  2696     9 
 2694  2692  2695  2696     9 
 2692  2695  2696  2697     9 
 2692  2695  2696  2698     9 
 2692  2695  2696  2699     9 
 2695  2696  2699  2700     9 
 2695  2696  2699  2701     9 
 2695  2696  2699  2719     9 
 2697  2696  2699  2700     9 
 2697  2696  2699  2701     9 
 2697  2696  2699  2719     9 
 2698  2696  2699  2700     9 
 2698  2696  2699  2701     9 
 2698  2696  2699  2719     9 
 2696  2699  2701  2702     9 
 2700  2699  2701  2702     9 
 2719  2699  2701  2702     9 
 2696  2699  2719  2720     9 
 2696  2699  2719  2721     9 
 2696  2699  2719  2724     9 
 2700  2699  2719  2720     9 
 2700  2699  2719  2721     9 
 2700  2699  2719  2724     9 
 2701  2699  2719  2720     9 
 2701  2699  2719  2721     9 
 2701  2699  2719  2724     9 
 2699  2701  2702  2703     9 
 2699  2701  2702  2704     9 
 2699  2701  2702  2721     9 
 2701  2702  2704  2705     9 
 2701  2702  2704  2718     9 
 2703  2702  2704  2705     9 
 2703  2702  2704  2718     9 
 2721  2702  2704  2705     9 
 2721  2702  2704  2718     9 
 2701  2702  2721  2719     9 
 2701  2702  2721  2722     9 
 2701  2702  2721  2723     9 
 2703  2702  2721  2719     9 
 2703  2702  2721  2722     9 
 2703  2702  2721  2723     9 
 2704  2702  2721  2719     9 
 2704  2702  2721  2722     9 
 2704  2702  2721  2723     9 
 2702  2704  2705  2706     9 
 2702  2704  2705  2707     9 
 2718  2704  2705  2706     9 
 2718  2704  2705  2707     9 
 2702  2704  2718  2708     9 
 2702  2704  2718  2717     9 
 2705  2704  2718  2708     9 
 2705  2704  2718  2717     9 
 2704  2705  2707  2708     9 
 2706  2705  2707  2708     9 
 2705  2707  2708  2709     9 
 2705  2707  2708  2718     9 
 2707  2708  2709  2710     9 
 2707  2708  2709  2711     9 
 2718  2708  2709  2710     9 
 2718  2708  2709  2711     9 
 2707  2708  2718  2704     9 
 2707  2708  2718  2717     9 
 2709  2708  2718  2704     9 
 2709  2708  2718  2717     9 
 2708  2709  2711  2712     9 
 2708  2709  2711  2713     9 
 2710  2709  2711  2712     9 
 2710  2709  2711  2713     9 
 2709  2711  2713  2714     9 
 2709  2711  2713  2717     9 
 2712  2711  2713  2714     9 
 2712  2711  2713  2717     9 
 2711  2713  2714  2715     9 
 2711  2713  2714  2716     9 
 2717  2713  2714  2715     9 
 2717  2713  2714  2716     9 
 2711  2713  2717  2718     9 
 2714  2713  2717  2718     9 
 2713  2717  2718  2704     9 
 2713  2717  2718  2708     9 
 2699  2719  2721  2702     9 
 2699  2719  2721  2722     9 
 2699  2719  2721  2723     9 
 2720  2719  2721  2702     9 
 2720  2719  2721  2722     9 
 2720  2719  2721  2723     9 
 2724  2719  2721  2702     9 
 2724  2719  2721  2722     9 
 2724  2719  2721  2723     9 
 2699  2719  2724  2725     9 
 2720  2719  2724  2725     9 
 2721  2719  2724  2725     9 
 2719  2724  2725  2726     9 
 2719  2724  2725  2727     9 
 2719  2724  2725  2728     9 
 2724  2725  2728  2729     9 
 2726  2725  2728  2729     9 
 2727  2725  2728  2729     9 
 2725  2728  2729  2730     9 
 2725  2728  2729  2731     9 
 2725  2728  2729  2732     9 
 2728  2729  2732  2733     9 
 2728  2729  2732  2734     9 
 2728  2729  2732  2751     9 
 2730  2729  2732  2733     9 
 2730  2729  2732  2734     9 
 2730  2729  2732  2751     9 
 2731  2729  2732  2733     9 
 2731  2729  2732  2734     9 
 2731  2729  2732  2751     9 
 2729  2732  2734  2735     9 
 2733  2732  2734  2735     9 
 2751  2732  2734  2735     9 
 2729  2732  2751  2752     9 
 2729  2732  2751  2753     9 
 2729  2732  2751  2756     9 
 2733  2732  2751  2752     9 
 2733  2732  2751  2753     9 
 2733  2732  2751  2756     9 
 2734  2732  2751  2752     9 
 2734  2732  2751  2753     9 
 2734  2732  2751  2756     9 
 2732  2734  2735  2736     9 
 2732  2734  2735  2737     9 
 2732  2734  2735  2753     9 
 2734  2735  2737  2738     9 
 2734  2735  2737  2749     9 
 2736  2735  2737  2738     9 
 2736  2735  2737  2749     9 
 2753  2735  2737  2738     9 
 2753  2735  2737  2749     9 
 2734  2735  2753  2751     9 
 2734  2735  2753  2754     9 
 2734  2735  2753  2755     9 
 2736  2735  2753  2751     9 
 2736  2735  2753  2754     9 
 2736  2735  2753  2755     9 
 2737  2735  2753  2751     9 
 2737  2735  2753  2754     9 
 2737  2735  2753  2755     9 
 2735  2737  2738  2739     9 
 2735  2737  2738  2740     9 
 2749  2737  2738  2739     9 
 2749  2737  2738  2740     9 
 2735  2737  2749  2747     9 
 2735  2737  2749  2750     9 
 2738  2737  2749  2747     9 
 2738  2737  2749  2750     9 
 2737  2738  2740  2741     9 
 2737  2738  2740  2745     9 
 2739  2738  2740  2741     9 
 2739  2738  2740  2745     9 
 2738  2740  2741  2742     9 
 2738  2740  2741  2743     9 
 2738  2740  2741  2744     9 
 2745  2740  2741  2742     9 
 2745  2740  2741  2743     9 
 2745  2740  2741  2744     9 
 2738  2740  2745  2746     9 
 2738  2740  2745  2747     9 
 2741  2740  2745  2746     9 
 2741  2740  2745  2747     9 
 2740  2745  2747  2748     9 
 2740  2745  2747  2749     9 
 2746  2745  2747  2748     9 
 2746  2745  2747  2749     9 
 2745  2747  2749  2737     9 
 2745  2747  2749  2750     9 
 2748  2747  2749  2737     9 
 2748  2747  2749  2750     9 
 2732  2751  2753  2735     9 
 2732  2751  2753  2754     9 
 2732  2751  2753  2755     9 
 2752  2751  2753  2735     9 
 2752  2751  2753  2754     9 
 2752  2751  2753  2755     9 
 2756  2751  2753  2735     9 
 2756  2751  2753  2754     9 
 2756  2751  2753  2755     9 
 2732  2751  2756  2757     9 
 2752  2751  2756  2757     9 
 2753  2751  2756  2757     9 
 2751  2756  2757  2758     9 
 2751  2756  2757  2759     9 
 2751  2756  2757  2760     9 
 2756  2757  2760  2761     9 
 2758  2757  2760  2761     9 
 2759  2757  2760  2761     9 
 2757  2760  2761  2762     9 
 2757  2760  2761  2763     9 
 2757  2760  2761  2764     9 
 2760  2761  2764  2765     9 
 2760  2761  2764  2766     9 
 2760  2761  2764  2784     9 
 2762  2761  2764  2765     9 
 2762  2761  2764  2766     9 
 2762  2761  2764  2784     9 
 2763  2761  2764  2765     9 
 2763  2761  2764  2766     9 
 2763  2761  2764  2784     9 
 2761  2764  2766  2767     9 
 2765  2764  2766  2767     9 
 2784  2764  2766  2767     9 
 2761  2764  2784  2785     9 
 2761  2764  2784  2786     9 
 2761  2764  2784  2789     9 
 2765  2764  2784  2785     9 
 2765  2764  2784  2786     9 
 2765  2764  2784  2789     9 
 2766  2764  2784  2785     9 
 2766  2764  2784  2786     9 
 2766  2764  2784  2789     9 
 2764  2766  2767  2768     9 
 2764  2766  2767  2769     9 
 2764  2766  2767  2786     9 
 2766  2767  2769  2770     9 
 2766  2767  2769  2783     9 
 2768  2767  2769  2770     9 
 2768  2767  2769  2783     9 
 2786  2767  2769  2770     9 
 2786  2767  2769  2783     9 
 2766  2767  2786  2784     9 
 2766  2767  2786  2787     9 
 2766  2767  2786  2788     9 
 2768  2767  2786  2784     9 
 2768  2767  2786  2787     9 
 2768  2767  2786  2788     9 
 2769  2767  2786  2784     9 
 2769  2767  2786  2787     9 
 2769  2767  2786  2788     9 
 2767  2769  2770  2771     9 
 2767  2769  2770  2772     9 
 2783  2769  2770  2771     9 
 2783  2769  2770  2772     9 
 2767  2769  2783  2773     9 
 2767  2769  2783  2782     9 
 2770  2769  2783  2773     9 
 2770  2769  2783  2782     9 
 2769  2770  2772  2773     9 
 2771  2770  2772  2773     9 
 2770  2772  2773  2774     9 
 2770  2772  2773  2783     9 
 2772  2773  2774  2775     9 
 2772  2773  2774  2776     9 
 2783  2773  2774  2775     9 
 2783  2773  2774  2776     9 
 2772  2773  2783  2769     9 
 2772  2773  2783  2782     9 
 2774  2773  2783  2769     9 
 2774  2773  2783  2782     9 
 2773  2774  2776  2777     9 
 2773  2774  2776  2778     9 
 2775  2774  2776  2777     9 
 2775  2774  2776  2778     9 
 2774  2776  2778  2779     9 
 2774  2776  2778  2782     9 
 2777  2776  2778  2779     9 
 2777  2776  2778  2782     9 
 2776  2778  2779  2780     9 
 2776  2778  2779  2781     9 
 2782  2778  2779  2780     9 
 2782  2778  2779  2781     9 
 2776  2778  2782  2783     9 
 2779  2778  2782  2783     9 
 2778  2782  2783  2769     9 
 2778  2782  2783  2773     9 
 2764  2784  2786  2767     9 
 2764  2784  2786  2787     9 
 2764  2784  2786  2788     9 
 2785  2784  2786  2767     9 
 2785  2784  2786  2787     9 
 2785  2784  2786  2788     9 
 2789  2784  2786  2767     9 
 2789  2784  2786  2787     9 
 2789  2784  2786  2788     9 
 2764  2784  2789  2790     9 
 2785  2784  2789  2790     9 
 2786  2784  2789  2790     9 
 2784  2789  2790  2791     9 
 2784  2789  2790  2792     9 
 2784  2789  2790  2793     9 
 2789  2790  2793  2794     9 
 2791  2790  2793  2794     9 
 2792  2790  2793  2794     9 
 2790  2793  2794  2795     9 
 2790  2793  2794  2796     9 
 2790  2793  2794  2797     9 
 2793  2794  2797  2798     9 
 2793  2794  2797  2799     9 
 2793  2794  2797  2814     9 
 2795  2794  2797  2798     9 
 2795  2794  2797  2799     9 
 2795  2794  2797  2814     9 
 2796  2794  2797  2798     9 
 2796  2794  2797  2799     9 
 2796  2794  2797  2814     9 
 2794  2797  2799  2800     9 
 2798  2797  2799  2800     9 
 2814  2797  2799  2800     9 
 2794  2797  2814  2815     9 
 2794  2797  2814  2816     9 
 2794  2797  2814  2819     9 
 2798  2797  2814  2815     9 
 2798  2797  2814  2816     9 
 2798  2797  2814  2819     9 
 2799  2797  2814  2815     9 
 2799  2797  2814  2816     9 
 2799  2797  2814  2819     9 
 2797  2799  2800  2801     9 
 2797  2799  2800  2802     9 
 2797  2799  2800  2816     9 
 2799  2800  2802  2803     9 
 2799  2800  2802  2812     9 
 2801  2800  2802  2803     9 
 2801  2800  2802  2812     9 
 2816  2800  2802  2803     9 
 2816  2800  2802  2812     9 
 2799  2800  2816  2814     9 
 2799  2800  2816  2817     9 
 2799  2800  2816  2818     9 
 2801  2800  2816  2814     9 
 2801  2800  2816  2817     9 
 2801  2800  2816  2818     9 
 2802  2800  2816  2814     9 
 2802  2800  2816  2817     9 
 2802  2800  2816  2818     9 
 2800  2802  2803  2804     9 
 2800  2802  2803  2805     9 
 2812  2802  2803  2804     9 
 2812  2802  2803  2805     9 
 2800  2802  2812  2811     9 
 2800  2802  2812  2813     9 
 2803  2802  2812  2811     9 
 2803  2802  2812  2813     9 
 2802  2803  2805  2806     9 
 2802  2803  2805  2807     9 
 2804  2803  2805  2806     9 
 2804  2803  2805  2807     9 
 2803  2805  2807  2808     9 
 2803  2805  2807  2811     9 
 2806  2805  2807  2808     9 
 2806  2805  2807  2811     9 
 2805  2807  2808  2809     9 
 2805  2807  2808  2810     9 
 2811  2807  2808  2809     9 
 2811  2807  2808  2810     9 
 2805  2807  2811  2812     9 
 2808  2807  2811  2812     9 
 2807  2811  2812  2802     9 
 2807  2811  2812  2813     9 
 2797  2814  2816  2800     9 
 2797  2814  2816  2817     9 
 2797  2814  2816  2818     9 
 2815  2814  2816  2800     9 
 2815  2814  2816  2817     9 
 2815  2814  2816  2818     9 
 2819  2814  2816  2800     9 
 2819  2814  2816  2817     9 
 2819  2814  2816  2818     9 
 2797  2814  2819  2820     9 
 2815  2814  2819  2820     9 
 2816  2814  2819  2820     9 
 2814  2819  2820  2821     9 
 2814  2819  2820  2822     9 
 2814  2819  2820  2823     9 
 2819  2820  2823  2824     9 
 2821  2820  2823  2824     9 
 2822  2820  2823  2824     9 
 2820  2823  2824  2825     9 
 2820  2823  2824  2826     9 
 2820  2823  2824  2827     9 
 2823  2824  2827  2828     9 
 2823  2824  2827  2829     9 
 2823  2824  2827  2847     9 
 2825  2824  2827  2828     9 
 2825  2824  2827  2829     9 
 2825  2824  2827  2847     9 
 2826  2824  2827  2828     9 
 2826  2824  2827  2829     9 
 2826  2824  2827  2847     9 
 2824  2827  2829  2830     9 
 2828  2827  2829  2830     9 
 2847  2827  2829  2830     9 
 2824  2827  2847  2848     9 
 2824  2827  2847  2849     9 
 2824  2827  2847  2852     9 
 2828  2827  2847  2848     9 
 2828  2827  2847  2849     9 
 2828  2827  2847  2852     9 
 2829  2827  2847  2848     9 
 2829  2827  2847  2849     9 
 2829  2827  2847  2852     9 
 2827  2829  2830  2831     9 
 2827  2829  2830  2832     9 
 2827  2829  2830  2849     9 
 2829  2830  2832  2833     9 
 2829  2830  2832  2846     9 
 2831  2830  2832  2833     9 
 2831  2830  2832  2846     9 
 2849  2830  2832  2833     9 
 2849  2830  2832  2846     9 
 2829  2830  2849  2847     9 
 2829  2830  2849  2850     9 
 2829  2830  2849  2851     9 
 2831  2830  2849  2847     9 
 2831  2830  2849  2850     9 
 2831  2830  2849  2851     9 
 2832  2830  2849  2847     9 
 2832  2830  2849  2850     9 
 2832  2830  2849  2851     9 
 2830  2832  2833  2834     9 
 2830  2832  2833  2835     9 
 2846  2832  2833  2834     9 
 2846  2832  2833  2835     9 
 2830  2832  2846  2836     9 
 2830  2832  2846  2845     9 
 2833  2832  2846  2836     9 
 2833  2832  2846  2845     9 
 2832  2833  2835  2836     9 
 2834  2833  2835  2836     9 
 2833  2835  2836  2837     9 
 2833  2835  2836  2846     9 
 2835  2836  2837  2838     9 
 2835  2836  2837  2839     9 
 2846  2836  2837  2838     9 
 2846  2836  2837  2839     9 
 2835  2836  2846  2832     9 
 2835  2836  2846  2845     9 
 2837  2836  2846  2832     9 
 2837  2836  2846  2845     9 
 2836  2837  2839  2840     9 
 2836  2837  2839  2841     9 
 2838  2837  2839  2840     9 
 2838  2837  2839  2841     9 
 2837  2839  2841  2842     9 
 2837  2839  2841  2845     9 
 2840  2839  2841  2842     9 
 2840  2839  2841  2845     9 
 2839  2841  2842  2843     9 
 2839  2841  2842  2844     9 
 2845  2841  2842  2843     9 
 2845  2841  2842  2844     9 
 2839  2841  2845  2846     9 
 2842  2841  2845  2846     9 
 2841  2845  2846  2832     9 
 2841  2845  2846  2836     9 
 2827  2847  2849  2830     9 
 2827  2847  2849  2850     9 
 2827  2847  2849  2851     9 
 2848  2847  2849  2830     9 
 2848  2847  2849  2850     9 
 2848  2847  2849  2851     9 
 2852  2847  2849  2830     9 
 2852  2847  2849  2850     9 
 2852  2847  2849  2851     9 
 2827  2847  2852  2853     9 
 2848  2847  2852  2853     9 
 2849  2847  2852  2853     9 
 2847  2852  2853  2854     9 
 2847  2852  2853  2855     9 
 2847  2852  2853  2856     9 
 2852  2853  2856  2857     9 
 2854  2853  2856  2857     9 
 2855  2853  2856  2857     9 
 2853  2856  2857  2858     9 
 2853  2856  2857  2859     9 
 2853  2856  2857  2860     9 
 2856  2857  2860  2861     9 
 2856  2857  2860  2862     9 
 2856  2857  2860  2880     9 
 2858  2857  2860  2861     9 
 2858  2857  2860  2862     9 
 2858  2857  2860  2880     9 
 2859  2857  2860  2861     9 
 2859  2857  2860  2862     9 
 2859  2857  2860  2880     9 
 2857  2860  2862  2863     9 
 2861  2860  2862  2863     9 
 2880  2860  2862  2863     9 
 2857  2860  2880  2881     9 
 2857  2860  2880  2882     9 
 2857  2860  2880  2885     9 
 2861  2860  2880  2881     9 
 2861  2860  2880  2882     9 
 2861  2860  2880  2885     9 
 2862  2860  2880  2881     9 
 2862  2860  2880  2882     9 
 2862  2860  2880  2885     9 
 2860  2862  2863  2864     9 
 2860  2862  2863  2865     9 
 2860  2862  2863  2882     9 
 2862  2863  2865  2866     9 
 2862  2863  2865  2879     9 
 2864  2863  2865  2866     9 
 2864  2863  2865  2879     9 
 2882  2863  2865  2866     9 
 2882  2863  2865  2879     9 
 2862  2863  2882  2880     9 
 2862  2863  2882  2883     9 
 2862  2863  2882  2884     9 
 2864  2863  2882  2880     9 
 2864  2863  2882  2883     9 
 2864  2863  2882  2884     9 
 2865  2863  2882  2880     9 
 2865  2863  2882  2883     9 
 2865  2863  2882  2884     9 
 2863  2865  2866  2867     9 
 2863  2865  2866  2868     9 
 2879  2865  2866  2867     9 
 2879  2865  2866  2868     9 
 2863  2865  2879  2869     9 
 2863  2865  2879  2878     9 
 2866  2865  2879  2869     9 
 2866  2865  2879  2878     9 
 2865  2866  2868  2869     9 
 2867  2866  2868  2869     9 
 2866  2868  2869  2870     9 
 2866  2868  2869  2879     9 
 2868  2869  2870  2871     9 
 2868  2869  2870  2872     9 
 2879  2869  2870  2871     9 
 2879  2869  2870  2872     9 
 2868  2869  2879  2865     9 
 2868  2869  2879  2878     9 
 2870  2869  2879  2865     9 
 2870  2869  2879  2878     9 
 2869  2870  2872  2873     9 
 2869  2870  2872  2874     9 
 2871  2870  2872  2873     9 
 2871  2870  2872  2874     9 
 2870  2872  2874  2875     9 
 2870  2872  2874  2878     9 
 2873  2872  2874  2875     9 
 2873  2872  2874  2878     9 
 2872  2874  2875  2876     9 
 2872  2874  2875  2877     9 
 2878  2874  2875  2876     9 
 2878  2874  2875  2877     9 
 2872  2874  2878  2879     9 
 2875  2874  2878  2879     9 
 2874  2878  2879  2865     9 
 2874  2878  2879  2869     9 
 2860  2880  2882  2863     9 
 2860  2880  2882  2883     9 
 2860  2880  2882  2884     9 
 2881  2880  2882  2863     9 
 2881  2880  2882  2883     9 
 2881  2880  2882  2884     9 
 2885  2880  2882  2863     9 
 2885  2880  2882  2883     9 
 2885  2880  2882  2884     9 
 2860  2880  2885  2886     9 
 2881  2880  2885  2886     9 
 2882  2880  2885  2886     9 
 2880  2885  2886  2887     9 
 2880  2885  2886  2888     9 
 2880  2885  2886  2889     9 
 2885  2886  2889  2890     9 
 2887  2886  2889  2890     9 
 2888  2886  2889  2890     9 
 2886  2889  2890  2891     9 
 2886  2889  2890  2892     9 
 2886  2889  2890  2893     9 
 2889  2890  2893  2894     9 
 2889  2890  2893  2895     9 
 2889  2890  2893  2913     9 
 2891  2890  2893  2894     9 
 2891  2890  2893  2895     9 
 2891  2890  2893  2913     9 
 2892  2890  2893  2894     9 
 2892  2890  2893  2895     9 
 2892  2890  2893  2913     9 
 2890  2893  2895  2896     9 
 2894  2893  2895  2896     9 
 2913  2893  2895  2896     9 
 2890  2893  2913  2914     9 
 2890  2893  2913  2915     9 
 2890  2893  2913  2918     9 
 2894  2893  2913  2914     9 
 2894  2893  2913  2915     9 
 2894  2893  2913  2918     9 
 2895  2893  2913  2914     9 
 2895  2893  2913  2915     9 
 2895  2893  2913  2918     9 
 2893  2895  2896  2897     9 
 2893  2895  2896  2898     9 
 2893  2895  2896  2915     9 
 2895  2896  2898  2899     9 
 2895  2896  2898  2912     9 
 2897  2896  2898  2899     9 
 2897  2896  2898  2912     9 
 2915  2896  2898  2899     9 
 2915  2896  2898  2912     9 
 2895  2896  2915  2913     9 
 2895  2896  2915  2916     9 
 2895  2896  2915  2917     9 
 2897  2896  2915  2913     9 
 2897  2896  2915  2916     9 
 2897  2896  2915  2917     9 
 2898  2896  2915  2913     9 
 2898  2896  2915  2916     9 
 2898  2896  2915  2917     9 
 2896  2898  2899  2900     9 
 2896  2898  2899  2901     9 
 2912  2898  2899  2900     9 
 2912  2898  2899  2901     9 
 2896  2898  2912  2902     9 
 2896  2898  2912  2911     9 
 2899  2898  2912  2902     9 
 2899  2898  2912  2911     9 
 2898  2899  2901  2902     9 
 2900  2899  2901  2902     9 
 2899  2901  2902  2903     9 
 2899  2901  2902  2912     9 
 2901  2902  2903  2904     9 
 2901  2902  2903  2905     9 
 2912  2902  2903  2904     9 
 2912  2902  2903  2905     9 
 2901  2902  2912  2898     9 
 2901  2902  2912  2911     9 
 2903  2902  2912  2898     9 
 2903  2902  2912  2911     9 
 2902  2903  2905  2906     9 
 2902  2903  2905  2907     9 
 2904  2903  2905  2906     9 
 2904  2903  2905  2907     9 
 2903  2905  2907  2908     9 
 2903  2905  2907  2911     9 
 2906  2905  2907  2908     9 
 2906  2905  2907  2911     9 
 2905  2907  2908  2909     9 
 2905  2907  2908  2910     9 
 2911  2907  2908  2909     9 
 2911  2907  2908  2910     9 
 2905  2907  2911  2912     9 
 2908  2907  2911  2912     9 
 2907  2911  2912  2898     9 
 2907  2911  2912  2902     9 
 2893  2913  2915  2896     9 
 2893  2913  2915  2916     9 
 2893  2913  2915  2917     9 
 2914  2913  2915  2896     9 
 2914  2913  2915  2916     9 
 2914  2913  2915  2917     9 
 2918  2913  2915  2896     9 
 2918  2913  2915  2916     9 
 2918  2913  2915  2917     9 
 2893  2913  2918  2919     9 
 2914  2913  2918  2919     9 
 2915  2913  2918  2919     9 
 2913  2918  2919  2920     9 
 2913  2918  2919  2921     9 
 2913  2918  2919  2922     9 
 2918  2919  2922  2923     9 
 2920  2919  2922  2923     9 
 2921  2919  2922  2923     9 
 2919  2922  2923  2924     9 
 2919  2922  2923  2925     9 
 2919  2922  2923  2926     9 
 2922  2923  2926  2927     9 
 2922  2923  2926  2928     9 
 2922  2923  2926  2945     9 
 2924  2923  2926  2927     9 
 2924  2923  2926  2928     9 
 2924  2923  2926  2945     9 
 2925  2923  2926  2927     9 
 2925  2923  2926  2928     9 
 2925  2923  2926  2945     9 
 2923  2926  2928  2929     9 
 2927  2926  2928  2929     9 
 2945  2926  2928  2929     9 
 2923  2926  2945  2946     9 
 2923  2926  2945  2947     9 
 2923  2926  2945  2950     9 
 2927  2926  2945  2946     9 
 2927  2926  2945  2947     9 
 2927  2926  2945  2950     9 
 2928  2926  2945  2946     9 
 2928  2926  2945  2947     9 
 2928  2926  2945  2950     9 
 2926  2928  2929  2930     9 
 2926  2928  2929  2931     9 
 2926  2928  2929  2947     9 
 2928  2929  2931  2932     9 
 2928  2929  2931  2944     9 
 2930  2929  2931  2932     9 
 2930  2929  2931  2944     9 
 2947  2929  2931  2932     9 
 2947  2929  2931  2944     9 
 2928  2929  2947  2945     9 
 2928  2929  2947  2948     9 
 2928  2929  2947  2949     9 
 2930  2929  2947  2945     9 
 2930  2929  2947  2948     9 
 2930  2929  2947  2949     9 
 2931  2929  2947  2945     9 
 2931  2929  2947  2948     9 
 2931  2929  2947  2949     9 
 2929  2931  2932  2933     9 
 2929  2931  2932  2934     9 
 2944  2931  2932  2933     9 
 2944  2931  2932  2934     9 
 2929  2931  2944  2935     9 
 2929  2931  2944  2943     9 
 2932  2931  2944  2935     9 
 2932  2931  2944  2943     9 
 2931  2932  2934  2935     9 
 2933  2932  2934  2935     9 
 2932  2934  2935  2936     9 
 2932  2934  2935  2944     9 
 2934  2935  2936  2937     9 
 2934  2935  2936  2940     9 
 2944  2935  2936  2937     9 
 2944  2935  2936  2940     9 
 2934  2935  2944  2931     9 
 2934  2935  2944  2943     9 
 2936  2935  2944  2931     9 
 2936  2935  2944  2943     9 
 2935  2936  2937  2938     9 
 2935  2936  2937  2939     9 
 2940  2936  2937  2938     9 
 2940  2936  2937  2939     9 
 2935  2936  2940  2941     9 
 2937  2936  2940  2941     9 
 2936  2940  2941  2942     9 
 2936  2940  2941  2943     9 
 2940  2941  2943  2944     9 
 2942  2941  2943  2944     9 
 2941  2943  2944  2931     9 
 2941  2943  2944  2935     9 
 2926  2945  2947  2929     9 
 2926  2945  2947  2948     9 
 2926  2945  2947  2949     9 
 2946  2945  2947  2929     9 
 2946  2945  2947  2948     9 
 2946  2945  2947  2949     9 
 2950  2945  2947  2929     9 
 2950  2945  2947  2948     9 
 2950  2945  2947  2949     9 
 2926  2945  2950  2951     9 
 2946  2945  2950  2951     9 
 2947  2945  2950  2951     9 
 2945  2950  2951  2952     9 
 2945  2950  2951  2953     9 
 2945  2950  2951  2954     9 
 2950  2951  2954  2955     9 
 2952  2951  2954  2955     9 
 2953  2951  2954  2955     9 
 2951  2954  2955  2956     9 
 2951  2954  2955  2957     9 
 2951  2954  2955  2958     9 
 2954  2955  2958  2959     9 
 2954  2955  2958  2960     9 
 2954  2955  2958  2978     9 
 2956  2955  2958  2959     9 
 2956  2955  2958  2960     9 
 2956  2955  2958  2978     9 
 2957  2955  2958  2959     9 
 2957  2955  2958  2960     9 
 2957  2955  2958  2978     9 
 2955  2958  2960  2961     9 
 2959  2958  2960  2961     9 
 2978  2958  2960  2961     9 
 2955  2958  2978  2979     9 
 2955  2958  2978  2980     9 
 2955  2958  2978  2983     9 
 2959  2958  2978  2979     9 
 2959  2958  2978  2980     9 
 2959  2958  2978  2983     9 
 2960  2958  2978  2979     9 
 2960  2958  2978  2980     9 
 2960  2958  2978  2983     9 
 2958  2960  2961  2962     9 
 2958  2960  2961  2963     9 
 2958  2960  2961  2980     9 
 2960  2961  2963  2964     9 
 2960  2961  2963  2977     9 
 2962  2961  2963  2964     9 
 2962  2961  2963  2977     9 
 2980  2961  2963  2964     9 
 2980  2961  2963  2977     9 
 2960  2961  2980  2978     9 
 2960  2961  2980  2981     9 
 2960  2961  2980  2982     9 
 2962  2961  2980  2978     9 
 2962  2961  2980  2981     9 
 2962  2961  2980  2982     9 
 2963  2961  2980  2978     9 
 2963  2961  2980  2981     9 
 2963  2961  2980  2982     9 
 2961  2963  2964  2965     9 
 2961  2963  2964  2966     9 
 2977  2963  2964  2965     9 
 2977  2963  2964  2966     9 
 2961  2963  2977  2967     9 
 2961  2963  2977  2976     9 
 2964  2963  2977  2967     9 
 2964  2963  2977  2976     9 
 2963  2964  2966  2967     9 
 2965  2964  2966  2967     9 
 2964  2966  2967  2968     9 
 2964  2966  2967  2977     9 
 2966  2967  2968  2969     9 
 2966  2967  2968  2970     9 
 2977  2967  2968  2969     9 
 2977  2967  2968  2970     9 
 2966  2967  2977  2963     9 
 2966  2967  2977  2976     9 
 2968  2967  2977  2963     9 
 2968  2967  2977  2976     9 
 2967  2968  2970  2971     9 
 2967  2968  2970  2972     9 
 2969  2968  2970  2971     9 
 2969  2968  2970  2972     9 
 2968  2970  2972  2973     9 
 2968  2970  2972  2976     9 
 2971  2970  2972  2973     9 
 2971  2970  2972  2976     9 
 2970  2972  2973  2974     9 
 2970  2972  2973  2975     9 
 2976  2972  2973  2974     9 
 2976  2972  2973  2975     9 
 2970  2972  2976  2977     9 
 2973  2972  2976  2977     9 
 2972  2976  2977  2963     9 
 2972  2976  2977  2967     9 
 2958  2978  2980  2961     9 
 2958  2978  2980  2981     9 
 2958  2978  2980  2982     9 
 2979  2978  2980  2961     9 
 2979  2978  2980  2981     9 
 2979  2978  2980  2982     9 
 2983  2978  2980  2961     9 
 2983  2978  2980  2981     9 
 2983  2978  2980  2982     9 
 2958  2978  2983  2984     9 
 2979  2978  2983  2984     9 
 2980  2978  2983  2984     9 
 2978  2983  2984  2985     9 
 2978  2983  2984  2986     9 
 2978  2983  2984  2987     9 
 2983  2984  2987  2988     9 
 2985  2984  2987  2988     9 
 2986  2984  2987  2988     9 
 2984  2987  2988  2989     9 
 2984  2987  2988  2990     9 
 2984  2987  2988  2991     9 
 2987  2988  2991  2992     9 
 2987  2988  2991  2993     9 
 2987  2988  2991  3010     9 
 2989  2988  2991  2992     9 
 2989  2988  2991  2993     9 
 2989  2988  2991  3010     9 
 2990  2988  2991  2992     9 
 2990  2988  2991  2993     9 
 2990  2988  2991  3010     9 
 2988  2991  2993  2994     9 
 2992  2991  2993  2994     9 
 3010  2991  2993  2994     9 
 2988  2991  3010  3011     9 
 2988  2991  3010  3012     9 
 2988  2991  3010  3015     9 
 2992  2991  3010  3011     9 
 2992  2991  3010  3012     9 
 2992  2991  3010  3015     9 
 2993  2991  3010  3011     9 
 2993  2991  3010  3012     9 
 2993  2991  3010  3015     9 
 2991  2993  2994  2995     9 
 2991  2993  2994  2996     9 
 2991  2993  2994  3012     9 
 2993  2994  2996  2997     9 
 2993  2994  2996  3009     9 
 2995  2994  2996  2997     9 
 2995  2994  2996  3009     9 
 3012  2994  2996  2997     9 
 3012  2994  2996  3009     9 
 2993  2994  3012  3010     9 
 2993  2994  3012  3013     9 
 2993  2994  3012  3014     9 
 2995  2994  3012  3010     9 
 2995  2994  3012  3013     9 
 2995  2994  3012  3014     9 
 2996  2994  3012  3010     9 
 2996  2994  3012  3013     9 
 2996  2994  3012  3014     9 
 2994  2996  2997  2998     9 
 2994  2996  2997  2999     9 
 3009  2996  2997  2998     9 
 3009  2996  2997  2999     9 
 2994  2996  3009  3000     9 
 2994  2996  3009  3008     9 
 2997  2996  3009  3000     9 
 2997  2996  3009  3008     9 
 2996  2997  2999  3000     9 
 2998  2997  2999  3000     9 
 2997  2999  3000  3001     9 
 2997  2999  3000  3009     9 
 2999  3000  3001  3002     9 
 2999  3000  3001  3005     9 
 3009  3000  3001  3002     9 
 3009  3000  3001  3005     9 
 2999  3000  3009  2996     9 
 2999  3000  3009  3008     9 
 3001  3000  3009  2996     9 
 3001  3000  3009  3008     9 
 3000  3001  3002  3003     9 
 3000  3001  3002  3004     9 
 3005  3001  3002  3003     9 
 3005  3001  3002  3004     9 
 3000  3001  3005  3006     9 
 3002  3001  3005  3006     9 
 3001  3005  3006  3007     9 
 3001  3005  3006  3008     9 
 3005  3006  3008  3009     9 
 3007  3006  3008  3009     9 
 3006  3008  3009  2996     9 
 3006  3008  3009  3000     9 
 2991  3010  3012  2994     9 
 2991  3010  3012  3013     9 
 2991  3010  3012  3014     9 
 3011  3010  3012  2994     9 
 3011  3010  3012  3013     9 
 3011  3010  3012  3014     9 
 3015  3010  3012  2994     9 
 3015  3010  3012  3013     9 
 3015  3010  3012  3014     9 
 2991  3010  3015  3016     9 
 3011  3010  3015  3016     9 
 3012  3010  3015  3016     9 
 3010  3015  3016  3017     9 
 3010  3015  3016  3018     9 
 3010  3015  3016  3019     9 
 3015  3016  3019  3020     9 
 3017  3016  3019  3020     9 
 3018  3016  3019  3020     9 
 3016  3019  3020  3021     9 
 3016  3019  3020  3022     9 
 3016  3019  3020  3023     9 
 3019  3020  3023  3024     9 
 3019  3020  3023  3025     9 
 3019  3020  3023  3043     9 
 3021  3020  3023  3024     9 
 3021  3020  3023  3025     9 
 3021  3020  3023  3043     9 
 3022  3020  3023  3024     9 
 3022  3020  3023  3025     9 
 3022  3020  3023  3043     9 
 3020  3023  3025  3026     9 
 3024  3023  3025  3026     9 
 3043  3023  3025  3026     9 
 3020  3023  3043  3044     9 
 3020  3023  3043  3045     9 
 3020  3023  3043  3048     9 
 3024  3023  3043  3044     9 
 3024  3023  3043  3045     9 
 3024  3023  3043  3048     9 
 3025  3023  3043  3044     9 
 3025  3023  3043  3045     9 
 3025  3023  3043  3048     9 
 3023  3025  3026  3027     9 
 3023  3025  3026  3028     9 
 3023  3025  3026  3045     9 
 3025  3026  3028  3029     9 
 3025  3026  3028  3042     9 
 3027  3026  3028  3029     9 
 3027  3026  3028  3042     9 
 3045  3026  3028  3029     9 
 3045  3026  3028  3042     9 
 3025  3026  3045  3043     9 
 3025  3026  3045  3046     9 
 3025  3026  3045  3047     9 
 3027  3026  3045  3043     9 
 3027  3026  3045  3046     9 
 3027  3026  3045  3047     9 
 3028  3026  3045  3043     9 
 3028  3026  3045  3046     9 
 3028  3026  3045  3047     9 
 3026  3028  3029  3030     9 
 3026  3028  3029  3031     9 
 3042  3028  3029  3030     9 
 3042  3028  3029  3031     9 
 3026  3028  3042  3032     9 
 3026  3028  3042  3041     9 
 3029  3028  3042  3032     9 
 3029  3028  3042  3041     9 
 3028  3029  3031  3032     9 
 3030  3029  3031  3032     9 
 3029  3031  3032  3033     9 
 3029  3031  3032  3042     9 
 3031  3032  3033  3034     9 
 3031  3032  3033  3035     9 
 3042  3032  3033  3034     9 
 3042  3032  3033  3035     9 
 3031  3032  3042  3028     9 
 3031  3032  3042  3041     9 
 3033  3032  3042  3028     9 
 3033  3032  3042  3041     9 
 3032  3033  3035  3036     9 
 3032  3033  3035  3037     9 
 3034  3033  3035  3036     9 
 3034  3033  3035  3037     9 
 3033  3035  3037  3038     9 
 3033  3035  3037  3041     9 
 3036  3035  3037  3038     9 
 3036  3035  3037  3041     9 
 3035  3037  3038  3039     9 
 3035  3037  3038  3040     9 
 3041  3037  3038  3039     9 
 3041  3037  3038  3040     9 
 3035  3037  3041  3042     9 
 3038  3037  3041  3042     9 
 3037  3041  3042  3028     9 
 3037  3041  3042  3032     9 
 3023  3043  3045  3026     9 
 3023  3043  3045  3046     9 
 3023  3043  3045  3047     9 
 3044  3043  3045  3026     9 
 3044  3043  3045  3046     9 
 3044  3043  3045  3047     9 
 3048  3043  3045  3026     9 
 3048  3043  3045  3046     9 
 3048  3043  3045  3047     9 
 3023  3043  3048  3049     9 
 3044  3043  3048  3049     9 
 3045  3043  3048  3049     9 
 3043  3048  3049  3050     9 
 3043  3048  3049  3051     9 
 3043  3048  3049  3052     9 
 3048  3049  3052  3053     9 
 3050  3049  3052  3053     9 
 3051  3049  3052  3053     9 
 3049  3052  3053  3054     9 
 3049  3052  3053  3055     9 
 3049  3052  3053  3056     9 
 3052  3053  3056  3057     9 
 3052  3053  3056  3058     9 
 3052  3053  3056  3075     9 
 3054  3053  3056  3057     9 
 3054  3053  3056  3058     9 
 3054  3053  3056  3075     9 
 3055  3053  3056  3057     9 
 3055  3053  3056  3058     9 
 3055  3053  3056  3075     9 
 3053  3056  3058  3059     9 
 3057  3056  3058  3059     9 
 3075  3056  3058  3059     9 
 3053  3056  3075  3076     9 
 3053  3056  3075  3077     9 
 3053  3056  3075  3080     9 
 3057  3056  3075  3076     9 
 3057  3056  3075  3077     9 
 3057  3056  3075  3080     9 
 3058  3056  3075  3076     9 
 3058  3056  3075  3077     9 
 3058  3056  3075  3080     9 
 3056  3058  3059  3060     9 
 3056  3058  3059  3061     9 
 3056  3058  3059  3077     9 
 3058  3059  3061  3062     9 
 3058  3059  3061  3074     9 
 3060  3059  3061  3062     9 
 3060  3059  3061  3074     9 
 3077  3059  3061  3062     9 
 3077  3059  3061  3074     9 
 3058  3059  3077  3075     9 
 3058  3059  3077  3078     9 
 3058  3059  3077  3079     9 
 3060  3059  3077  3075     9 
 3060  3059  3077  3078     9 
 3060  3059  3077  3079     9 
 3061  3059  3077  3075     9 
 3061  3059  3077  3078     9 
 3061  3059  3077  3079     9 
 3059  3061  3062  3063     9 
 3059  3061  3062  3064     9 
 3074  3061  3062  3063     9 
 3074  3061  3062  3064     9 
 3059  3061  3074  3065     9 
 3059  3061  3074  3073     9 
 3062  3061  3074  3065     9 
 3062  3061  3074  3073     9 
 3061  3062  3064  3065     9 
 3063  3062  3064  3065     9 
 3062  3064  3065  3066     9 
 3062  3064  3065  3074     9 
 3064  3065  3066  3067     9 
 3064  3065  3066  3070     9 
 3074  3065  3066  3067     9 
 3074  3065  3066  3070     9 
 3064  3065  3074  3061     9 
 3064  3065  3074  3073     9 
 3066  3065  3074  3061     9 
 3066  3065  3074  3073     9 
 3065  3066  3067  3068     9 
 3065  3066  3067  3069     9 
 3070  3066  3067  3068     9 
 3070  3066  3067  3069     9 
 3065  3066  3070  3071     9 
 3067  3066  3070  3071     9 
 3066  3070  3071  3072     9 
 3066  3070  3071  3073     9 
 3070  3071  3073  3074     9 
 3072  3071  3073  3074     9 
 3071  3073  3074  3061     9 
 3071  3073  3074  3065     9 
 3056  3075  3077  3059     9 
 3056  3075  3077  3078     9 
 3056  3075  3077  3079     9 
 3076  3075  3077  3059     9 
 3076  3075  3077  3078     9 
 3076  3075  3077  3079     9 
 3080  3075  3077  3059     9 
 3080  3075  3077  3078     9 
 3080  3075  3077  3079     9 
 3056  3075  3080  3081     9 
 3076  3075  3080  3081     9 
 3077  3075  3080  3081     9 
 3075  3080  3081  3082     9 
 3075  3080  3081  3083     9 
 3075  3080  3081  3084     9 
 3080  3081  3084  3085     9 
 3082  3081  3084  3085     9 
 3083  3081  3084  3085     9 
 3081  3084  3085  3086     9 
 3081  3084  3085  3087     9 
 3081  3084  3085  3088     9 
 3084  3085  3088  3089     9 
 3084  3085  3088  3090     9 
 3084  3085  3088  3108     9 
 3086  3085  3088  3089     9 
 3086  3085  3088  3090     9 
 3086  3085  3088  3108     9 
 3087  3085  3088  3089     9 
 3087  3085  3088  3090     9 
 3087  3085  3088  3108     9 
 3085  3088  3090  3091     9 
 3089  3088  3090  3091     9 
 3108  3088  3090  3091     9 
 3085  3088  3108  3109     9 
 3085  3088  3108  3110     9 
 3085  3088  3108  3113     9 
 3089  3088  3108  3109     9 
 3089  3088  3108  3110     9 
 3089  3088  3108  3113     9 
 3090  3088  3108  3109     9 
 3090  3088  3108  3110     9 
 3090  3088  3108  3113     9 
 3088  3090  3091  3092     9 
 3088  3090  3091  3093     9 
 3088  3090  3091  3110     9 
 3090  3091  3093  3094     9 
 3090  3091  3093  3107     9 
 3092  3091  3093  3094     9 
 3092  3091  3093  3107     9 
 3110  3091  3093  3094     9 
 3110  3091  3093  3107     9 
 3090  3091  3110  3108     9 
 3090  3091  3110  3111     9 
 3090  3091  3110  3112     9 
 3092  3091  3110  3108     9 
 3092  3091  3110  3111     9 
 3092  3091  3110  3112     9 
 3093  3091  3110  3108     9 
 3093  3091  3110  3111     9 
 3093  3091  3110  3112     9 
 3091  3093  3094  3095     9 
 3091  3093  3094  3096     9 
 3107  3093  3094  3095     9 
 3107  3093  3094  3096     9 
 3091  3093  3107  3097     9 
 3091  3093  3107  3106     9 
 3094  3093  3107  3097     9 
 3094  3093  3107  3106     9 
 3093  3094  3096  3097     9 
 3095  3094  3096  3097     9 
 3094  3096  3097  3098     9 
 3094  3096  3097  3107     9 
 3096  3097  3098  3099     9 
 3096  3097  3098  3100     9 
 3107  3097  3098  3099     9 
 3107  3097  3098  3100     9 
 3096  3097  3107  3093     9 
 3096  3097  3107  3106     9 
 3098  3097  3107  3093     9 
 3098  3097  3107  3106     9 
 3097  3098  3100  3101     9 
 3097  3098  3100  3102     9 
 3099  3098  3100  3101     9 
 3099  3098  3100  3102     9 
 3098  3100  3102  3103     9 
 3098  3100  3102  3106     9 
 3101  3100  3102  3103     9 
 3101  3100  3102  3106     9 
 3100  3102  3103  3104     9 
 3100  3102  3103  3105     9 
 3106  3102  3103  3104     9 
 3106  3102  3103  3105     9 
 3100  3102  3106  3107     9 
 3103  3102  3106  3107     9 
 3102  3106  3107  3093     9 
 3102  3106  3107  3097     9 
 3088  3108  3110  3091     9 
 3088  3108  3110  3111     9 
 3088  3108  3110  3112     9 
 3109  3108  3110  3091     9 
 3109  3108  3110  3111     9 
 3109  3108  3110  3112     9 
 3113  3108  3110  3091     9 
 3113  3108  3110  3111     9 
 3113  3108  3110  3112     9 
 3088  3108  3113  3114     9 
 3109  3108  3113  3114     9 
 3110  3108  3113  3114     9 
 3108  3113  3114  3115     9 
 3108  3113  3114  3116     9 
 3108  3113  3114  3117     9 
 3113  3114  3117  3118     9 
 3115  3114  3117  3118     9 
 3116  3114  3117  3118     9 
 3114  3117  3118  3119     9 
 3114  3117  3118  3120     9 
 3114  3117  3118  3121     9 
 3117  3118  3121  3122     9 
 3117  3118  3121  3123     9 
 3117  3118  3121  3141     9 
 3119  3118  3121  3122     9 
 3119  3118  3121  3123     9 
 3119  3118  3121  3141     9 
 3120  3118  3121  3122     9 
 3120  3118  3121  3123     9 
 3120  3118  3121  3141     9 
 3118  3121  3123  3124     9 
 3122  3121  3123  3124     9 
 3141  3121  3123  3124     9 
 3118  3121  3141  3142     9 
 3118  3121  3141  3143     9 
 3118  3121  3141  3146     9 
 3122  3121  3141  3142     9 
 3122  3121  3141  3143     9 
 3122  3121  3141  3146     9 
 3123  3121  3141  3142     9 
 3123  3121  3141  3143     9 
 3123  3121  3141  3146     9 
 3121  3123  3124  3125     9 
 3121  3123  3124  3126     9 
 3121  3123  3124  3143     9 
 3123  3124  3126  3127     9 
 3123  3124  3126  3140     9 
 3125  3124  3126  3127     9 
 3125  3124  3126  3140     9 
 3143  3124  3126  3127     9 
 3143  3124  3126  3140     9 
 3123  3124  3143  3141     9 
 3123  3124  3143  3144     9 
 3123  3124  3143  3145     9 
 3125  3124  3143  3141     9 
 3125  3124  3143  3144     9 
 3125  3124  3143  3145     9 
 3126  3124  3143  3141     9 
 3126  3124  3143  3144     9 
 3126  3124  3143  3145     9 
 3124  3126  3127  3128     9 
 3124  3126  3127  3129     9 
 3140  3126  3127  3128     9 
 3140  3126  3127  3129     9 
 3124  3126  3140  3130     9 
 3124  3126  3140  3139     9 
 3127  3126  3140  3130     9 
 3127  3126  3140  3139     9 
 3126  3127  3129  3130     9 
 3128  3127  3129  3130     9 
 3127  3129  3130  3131     9 
 3127  3129  3130  3140     9 
 3129  3130  3131  3132     9 
 3129  3130  3131  3133     9 
 3140  3130  3131  3132     9 
 3140  3130  3131  3133     9 
 3129  3130  3140  3126     9 
 3129  3130  3140  3139     9 
 3131  3130  3140  3126     9 
 3131  3130  3140  3139     9 
 3130  3131  3133  3134     9 
 3130  3131  3133  3135     9 
 3132  3131  3133  3134     9 
 3132  3131  3133  3135     9 
 3131  3133  3135  3136     9 
 3131  3133  3135  3139     9 
 3134  3133  3135  3136     9 
 3134  3133  3135  3139     9 
 3133  3135  3136  3137     9 
 3133  3135  3136  3138     9 
 3139  3135  3136  3137     9 
 3139  3135  3136  3138     9 
 3133  3135  3139  3140     9 
 3136  3135  3139  3140     9 
 3135  3139  3140  3126     9 
 3135  3139  3140  3130     9 
 3121  3141  3143  3124     9 
 3121  3141  3143  3144     9 
 3121  3141  3143  3145     9 
 3142  3141  3143  3124     9 
 3142  3141  3143  3144     9 
 3142  3141  3143  3145     9 
 3146  3141  3143  3124     9 
 3146  3141  3143  3144     9 
 3146  3141  3143  3145     9 
 3121  3141  3146  3147     9 
 3142  3141  3146  3147     9 
 3143  3141  3146  3147     9 
 3141  3146  3147  3148     9 
 3141  3146  3147  3149     9 
 3141  3146  3147  3150     9 
 3146  3147  3150  3151     9 
 3148  3147  3150  3151     9 
 3149  3147  3150  3151     9 
 3147  3150  3151  3152     9 
 3147  3150  3151  3153     9 
 3147  3150  3151  3154     9 
 3150  3151  3154  3155     9 
 3150  3151  3154  3156     9 
 3150  3151  3154  3173     9 
 3152  3151  3154  3155     9 
 3152  3151  3154  3156     9 
 3152  3151  3154  3173     9 
 3153  3151  3154  3155     9 
 3153  3151  3154  3156     9 
 3153  3151  3154  3173     9 
 3151  3154  3156  3157     9 
 3155  3154  3156  3157     9 
 3173  3154  3156  3157     9 
 3151  3154  3173  3174     9 
 3151  3154  3173  3175     9 
 3151  3154  3173  3178     9 
 3155  3154  3173  3174     9 
 3155  3154  3173  3175     9 
 3155  3154  3173  3178     9 
 3156  3154  3173  3174     9 
 3156  3154  3173  3175     9 
 3156  3154  3173  3178     9 
 3154  3156  3157  3158     9 
 3154  3156  3157  3159     9 
 3154  3156  3157  3175     9 
 3156  3157  3159  3160     9 
 3156  3157  3159  3171     9 
 3158  3157  3159  3160     9 
 3158  3157  3159  3171     9 
 3175  3157  3159  3160     9 
 3175  3157  3159  3171     9 
 3156  3157  3175  3173     9 
 3156  3157  3175  3176     9 
 3156  3157  3175  3177     9 
 3158  3157  3175  3173     9 
 3158  3157  3175  3176     9 
 3158  3157  3175  3177     9 
 3159  3157  3175  3173     9 
 3159  3157  3175  3176     9 
 3159  3157  3175  3177     9 
 3157  3159  3160  3161     9 
 3157  3159  3160  3162     9 
 3171  3159  3160  3161     9 
 3171  3159  3160  3162     9 
 3157  3159  3171  3169     9 
 3157  3159  3171  3172     9 
 3160  3159  3171  3169     9 
 3160  3159  3171  3172     9 
 3159  3160  3162  3163     9 
 3159  3160  3162  3167     9 
 3161  3160  3162  3163     9 
 3161  3160  3162  3167     9 
 3160  3162  3163  3164     9 
 3160  3162  3163  3165     9 
 3160  3162  3163  3166     9 
 3167  3162  3163  3164     9 
 3167  3162  3163  3165     9 
 3167  3162  3163  3166     9 
 3160  3162  3167  3168     9 
 3160  3162  3167  3169     9 
 3163  3162  3167  3168     9 
 3163  3162  3167  3169     9 
 3162  3167  3169  3170     9 
 3162  3167  3169  3171     9 
 3168  3167  3169  3170     9 
 3168  3167  3169  3171     9 
 3167  3169  3171  3159     9 
 3167  3169  3171  3172     9 
 3170  3169  3171  3159     9 
 3170  3169  3171  3172     9 
 3154  3173  3175  3157     9 
 3154  3173  3175  3176     9 
 3154  3173  3175  3177     9 
 3174  3173  3175  3157     9 
 3174  3173  3175  3176     9 
 3174  3173  3175  3177     9 
 3178  3173  3175  3157     9 
 3178  3173  3175  3176     9 
 3178  3173  3175  3177     9 
 3154  3173  3178  3179     9 
 3174  3173  3178  3179     9 
 3175  3173  3178  3179     9 
 3173  3178  3179  3180     9 
 3173  3178  3179  3181     9 
 3173  3178  3179  3182     9 
 3178  3179  3182  3183     9 
 3180  3179  3182  3183     9 
 3181  3179  3182  3183     9 
 3179  3182  3183  3184     9 
 3179  3182  3183  3185     9 
 3179  3182  3183  3186     9 
 3182  3183  3186  3187     9 
 3182  3183  3186  3188     9 
 3182  3183  3186  3205     9 
 3184  3183  3186  3187     9 
 3184  3183  3186  3188     9 
 3184  3183  3186  3205     9 
 3185  3183  3186  3187     9 
 3185  3183  3186  3188     9 
 3185  3183  3186  3205     9 
 3183  3186  3188  3189     9 
 3187  3186  3188  3189     9 
 3205  3186  3188  3189     9 
 3183  3186  3205  3206     9 
 3183  3186  3205  3207     9 
 3183  3186  3205  3210     9 
 3187  3186  3205  3206     9 
 3187  3186  3205  3207     9 
 3187  3186  3205  3210     9 
 3188  3186  3205  3206     9 
 3188  3186  3205  3207     9 
 3188  3186  3205  3210     9 
 3186  3188  3189  3190     9 
 3186  3188  3189  3191     9 
 3186  3188  3189  3207     9 
 3188  3189  3191  3192     9 
 3188  3189  3191  3204     9 
 3190  3189  3191  3192     9 
 3190  3189  3191  3204     9 
 3207  3189  3191  3192     9 
 3207  3189  3191  3204     9 
 3188  3189  3207  3205     9 
 3188  3189  3207  3208     9 
 3188  3189  3207  3209     9 
 3190  3189  3207  3205     9 
 3190  3189  3207  3208     9 
 3190  3189  3207  3209     9 
 3191  3189  3207  3205     9 
 3191  3189  3207  3208     9 
 3191  3189  3207  3209     9 
 3189  3191  3192  3193     9 
 3189  3191  3192  3194     9 
 3204  3191  3192  3193     9 
 3204  3191  3192  3194     9 
 3189  3191  3204  3195     9 
 3189  3191  3204  3203     9 
 3192  3191  3204  3195     9 
 3192  3191  3204  3203     9 
 3191  3192  3194  3195     9 
 3193  3192  3194  3195     9 
 3192  3194  3195  3196     9 
 3192  3194  3195  3204     9 
 3194  3195  3196  3197     9 
 3194  3195  3196  3200     9 
 3204  3195  3196  3197     9 
 3204  3195  3196  3200     9 
 3194  3195  3204  3191     9 
 3194  3195  3204  3203     9 
 3196  3195  3204  3191     9 
 3196  3195  3204  3203     9 
 3195  3196  3197  3198     9 
 3195  3196  3197  3199     9 
 3200  3196  3197  3198     9 
 3200  3196  3197  3199     9 
 3195  3196  3200  3201     9 
 3197  3196  3200  3201     9 
 3196  3200  3201  3202     9 
 3196  3200  3201  3203     9 
 3200  3201  3203  3204     9 
 3202  3201  3203  3204     9 
 3201  3203  3204  3191     9 
 3201  3203  3204  3195     9 
 3186  3205  3207  3189     9 
 3186  3205  3207  3208     9 
 3186  3205  3207  3209     9 
 3206  3205  3207  3189     9 
 3206  3205  3207  3208     9 
 3206  3205  3207  3209     9 
 3210  3205  3207  3189     9 
 3210  3205  3207  3208     9 
 3210  3205  3207  3209     9 
 3186  3205  3210  3211     9 
 3206  3205  3210  3211     9 
 3207  3205  3210  3211     9 
 3205  3210  3211  3212     9 
 3205  3210  3211  3213     9 
 3205  3210  3211  3214     9 
 3210  3211  3214  3215     9 
 3212  3211  3214  3215     9 
 3213  3211  3214  3215     9 
 3211  3214  3215  3216     9 
 3211  3214  3215  3217     9 
 3211  3214  3215  3218     9 
 3214  3215  3218  3219     9 
 3214  3215  3218  3220     9 
 3214  3215  3218  3235     9 
 3216  3215  3218  3219     9 
 3216  3215  3218  3220     9 
 3216  3215  3218  3235     9 
 3217  3215  3218  3219     9 
 3217  3215  3218  3220     9 
 3217  3215  3218  3235     9 
 3215  3218  3220  3221     9 
 3219  3218  3220  3221     9 
 3235  3218  3220  3221     9 
 3215  3218  3235  3236     9 
 3215  3218  3235  3237     9 
 3215  3218  3235  3240     9 
 3219  3218  3235  3236     9 
 3219  3218  3235  3237     9 
 3219  3218  3235  3240     9 
 3220  3218  3235  3236     9 
 3220  3218  3235  3237     9 
 3220  3218  3235  3240     9 
 3218  3220  3221  3222     9 
 3218  3220  3221  3223     9 
 3218  3220  3221  3237     9 
 3220  3221  3223  3224     9 
 3220  3221  3223  3233     9 
 3222  3221  3223  3224     9 
 3222  3221  3223  3233     9 
 3237  3221  3223  3224     9 
 3237  3221  3223  3233     9 
 3220  3221  3237  3235     9 
 3220  3221  3237  3238     9 
 3220  3221  3237  3239     9 
 3222  3221  3237  3235     9 
 3222  3221  3237  3238     9 
 3222  3221  3237  3239     9 
 3223  3221  3237  3235     9 
 3223  3221  3237  3238     9 
 3223  3221  3237  3239     9 
 3221  3223  3224  3225     9 
 3221  3223  3224  3226     9 
 3233  3223  3224  3225     9 
 3233  3223  3224  3226     9 
 3221  3223  3233  3232     9 
 3221  3223  3233  3234     9 
 3224  3223  3233  3232     9 
 3224  3223  3233  3234     9 
 3223  3224  3226  3227     9 
 3223  3224  3226  3228     9 
 3225  3224  3226  3227     9 
 3225  3224  3226  3228     9 
 3224  3226  3228  3229     9 
 3224  3226  3228  3232     9 
 3227  3226  3228  3229     9 
 3227  3226  3228  3232     9 
 3226  3228  3229  3230     9 
 3226  3228  3229  3231     9 
 3232  3228  3229  3230     9 
 3232  3228  3229  3231     9 
 3226  3228  3232  3233     9 
 3229  3228  3232  3233     9 
 3228  3232  3233  3223     9 
 3228  3232  3233  3234     9 
 3218  3235  3237  3221     9 
 3218  3235  3237  3238     9 
 3218  3235  3237  3239     9 
 3236  3235  3237  3221     9 
 3236  3235  3237  3238     9 
 3236  3235  3237  3239     9 
 3240  3235  3237  3221     9 
 3240  3235  3237  3238     9 
 3240  3235  3237  3239     9 
 3218  3235  3240  3241     9 
 3236  3235  3240  3241     9 
 3237  3235  3240  3241     9 
 3235  3240  3241  3242     9 
 3235  3240  3241  3243     9 
 3235  3240  3241  3244     9 
 3240  3241  3244  3245     9 
 3242  3241  3244  3245     9 
 3243  3241  3244  3245     9 
 3241  3244  3245  3246     9 
 3241  3244  3245  3247     9 
 3241  3244  3245  3248     9 
 3244  3245  3248  3249     9 
 3244  3245  3248  3250     9 
 3244  3245  3248  3268     9 
 3246  3245  3248  3249     9 
 3246  3245  3248  3250     9 
 3246  3245  3248  3268     9 
 3247  3245  3248  3249     9 
 3247  3245  3248  3250     9 
 3247  3245  3248  3268     9 
 3245  3248  3250  3251     9 
 3249  3248  3250  3251     9 
 3268  3248  3250  3251     9 
 3245  3248  3268  3269     9 
 3245  3248  3268  3270     9 
 3245  3248  3268  3273     9 
 3249  3248  3268  3269     9 
 3249  3248  3268  3270     9 
 3249  3248  3268  3273     9 
 3250  3248  3268  3269     9 
 3250  3248  3268  3270     9 
 3250  3248  3268  3273     9 
 3248  3250  3251  3252     9 
 3248  3250  3251  3253     9 
 3248  3250  3251  3270     9 
 3250  3251  3253  3254     9 
 3250  3251  3253  3267     9 
 3252  3251  3253  3254     9 
 3252  3251  3253  3267     9 
 3270  3251  3253  3254     9 
 3270  3251  3253  3267     9 
 3250  3251  3270  3268     9 
 3250  3251  3270  3271     9 
 3250  3251  3270  3272     9 
 3252  3251  3270  3268     9 
 3252  3251  3270  3271     9 
 3252  3251  3270  3272     9 
 3253  3251  3270  3268     9 
 3253  3251  3270  3271     9 
 3253  3251  3270  3272     9 
 3251  3253  3254  3255     9 
 3251  3253  3254  3256     9 
 3267  3253  3254  3255     9 
 3267  3253  3254  3256     9 
 3251  3253  3267  3257     9 
 3251  3253  3267  3266     9 
 3254  3253  3267  3257     9 
 3254  3253  3267  3266     9 
 3253  3254  3256  3257     9 
 3255  3254  3256  3257     9 
 3254  3256  3257  3258     9 
 3254  3256  3257  3267     9 
 3256  3257  3258  3259     9 
 3256  3257  3258  3260     9 
 3267  3257  3258  3259     9 
 3267  3257  3258  3260     9 
 3256  3257  3267  3253     9 
 3256  3257  3267  3266     9 
 3258  3257  3267  3253     9 
 3258  3257  3267  3266     9 
 3257  3258  3260  3261     9 
 3257  3258  3260  3262     9 
 3259  3258  3260  3261     9 
 3259  3258  3260  3262     9 
 3258  3260  3262  3263     9 
 3258  3260  3262  3266     9 
 3261  3260  3262  3263     9 
 3261  3260  3262  3266     9 
 3260  3262  3263  3264     9 
 3260  3262  3263  3265     9 
 3266  3262  3263  3264     9 
 3266  3262  3263  3265     9 
 3260  3262  3266  3267     9 
 3263  3262  3266  3267     9 
 3262  3266  3267  3253     9 
 3262  3266  3267  3257     9 
 3248  3268  3270  3251     9 
 3248  3268  3270  3271     9 
 3248  3268  3270  3272     9 
 3269  3268  3270  3251     9 
 3269  3268  3270  3271     9 
 3269  3268  3270  3272     9 
 3273  3268  3270  3251     9 
 3273  3268  3270  3271     9 
 3273  3268  3270  3272     9 
 3248  3268  3273  3274     9 
 3269  3268  3273  3274     9 
 3270  3268  3273  3274     9 
 3268  3273  3274  3275     9 
 3268  3273  3274  3276     9 
 3268  3273  3274  3277     9 
 3273  3274  3277  3278     9 
 3275  3274  3277  3278     9 
 3276  3274  3277  3278     9 
 3274  3277  3278  3279     9 
 3274  3277  3278  3280     9 
 3274  3277  3278  3281     9 
 3277  3278  3281  3282     9 
 3277  3278  3281  3283     9 
 3277  3278  3281  3301     9 
 3279  3278  3281  3282     9 
 3279  3278  3281  3283     9 
 3279  3278  3281  3301     9 
 3280  3278  3281  3282     9 
 3280  3278  3281  3283     9 
 3280  3278  3281  3301     9 
 3278  3281  3283  3284     9 
 3282  3281  3283  3284     9 
 3301  3281  3283  3284     9 
 3278  3281  3301  3302     9 
 3278  3281  3301  3303     9 
 3278  3281  3301  3306     9 
 3282  3281  3301  3302     9 
 3282  3281  3301  3303     9 
 3282  3281  3301  3306     9 
 3283  3281  3301  3302     9 
 3283  3281  3301  3303     9 
 3283  3281  3301  3306     9 
 3281  3283  3284  3285     9 
 3281  3283  3284  3286     9 
 3281  3283  3284  3303     9 
 3283  3284  3286  3287     9 
 3283  3284  3286  3300     9 
 3285  3284  3286  3287     9 
 3285  3284  3286  3300     9 
 3303  3284  3286  3287     9 
 3303  3284  3286  3300     9 
 3283  3284  3303  3301     9 
 3283  3284  3303  3304     9 
 3283  3284  3303  3305     9 
 3285  3284  3303  3301     9 
 3285  3284  3303  3304     9 
 3285  3284  3303  3305     9 
 3286  3284  3303  3301     9 
 3286  3284  3303  3304     9 
 3286  3284  3303  3305     9 
 3284  3286  3287  3288     9 
 3284  3286  3287  3289     9 
 3300  3286  3287  3288     9 
 3300  3286  3287  3289     9 
 3284  3286  3300  3290     9 
 3284  3286  3300  3299     9 
 3287  3286  3300  3290     9 
 3287  3286  3300  3299     9 
 3286  3287  3289  3290     9 
 3288  3287  3289  3290     9 
 3287  3289  3290  3291     9 
 3287  3289  3290  3300     9 
 3289  3290  3291  3292     9 
 3289  3290  3291  3293     9 
 3300  3290  3291  3292     9 
 3300  3290  3291  3293     9 
 3289  3290  3300  3286     9 
 3289  3290  3300  3299     9 
 3291  3290  3300  3286     9 
 3291  3290  3300  3299     9 
 3290  3291  3293  3294     9 
 3290  3291  3293  3295     9 
 3292  3291  3293  3294     9 
 3292  3291  3293  3295     9 
 3291  3293  3295  3296     9 
 3291  3293  3295  3299     9 
 3294  3293  3295  3296     9 
 3294  3293  3295  3299     9 
 3293  3295  3296  3297     9 
 3293  3295  3296  3298     9 
 3299  3295  3296  3297     9 
 3299  3295  3296  3298     9 
 3293  3295  3299  3300     9 
 3296  3295  3299  3300     9 
 3295  3299  3300  3286     9 
 3295  3299  3300  3290     9 
 3281  3301  3303  3284     9 
 3281  3301  3303  3304     9 
 3281  3301  3303  3305     9 
 3302  3301  3303  3284     9 
 3302  3301  3303  3304     9 
 3302  3301  3303  3305     9 
 3306  3301  3303  3284     9 
 3306  3301  3303  3304     9 
 3306  3301  3303  3305     9 
 3281  3301  3306  3307     9 
 3302  3301  3306  3307     9 
 3303  3301  3306  3307     9 
 3301  3306  3307  3308     9 
 3301  3306  3307  3309     9 
 3301  3306  3307  3310     9 
 3306  3307  3310  3311     9 
 3308  3307  3310  3311     9 
 3309  3307  3310  3311     9 
 3307  3310  3311  3312     9 
 3307  3310  3311  3313     9 
 3307  3310  3311  3314     9 
 3310  3311  3314  3315     9 
 3310  3311  3314  3316     9 
 3310  3311  3314  3333     9 
 3312  3311  3314  3315     9 
 3312  3311  3314  3316     9 
 3312  3311  3314  3333     9 
 3313  3311  3314  3315     9 
 3313  3311  3314  3316     9 
 3313  3311  3314  3333     9 
 3311  3314  3316  3317     9 
 3315  3314  3316  3317     9 
 3333  3314  3316  3317     9 
 3311  3314  3333  3334     9 
 3311  3314  3333  3335     9 
 3311  3314  3333  3338     9 
 3315  3314  3333  3334     9 
 3315  3314  3333  3335     9 
 3315  3314  3333  3338     9 
 3316  3314  3333  3334     9 
 3316  3314  3333  3335     9 
 3316  3314  3333  3338     9 
 3314  3316  3317  3318     9 
 3314  3316  3317  3319     9 
 3314  3316  3317  3335     9 
 3316  3317  3319  3320     9 
 3316  3317  3319  3332     9 
 3318  3317  3319  3320     9 
 3318  3317  3319  3332     9 
 3335  3317  3319  3320     9 
 3335  3317  3319  3332     9 
 3316  3317  3335  3333     9 
 3316  3317  3335  3336     9 
 3316  3317  3335  3337     9 
 3318  3317  3335  3333     9 
 3318  3317  3335  3336     9 
 3318  3317  3335  3337     9 
 3319  3317  3335  3333     9 
 3319  3317  3335  3336     9 
 3319  3317  3335  3337     9 
 3317  3319  3320  3321     9 
 3317  3319  3320  3322     9 
 3332  3319  3320  3321     9 
 3332  3319  3320  3322     9 
 3317  3319  3332  3323     9 
 3317  3319  3332  3331     9 
 3320  3319  3332  3323     9 
 3320  3319  3332  3331     9 
 3319  3320  3322  3323     9 
 3321  3320  3322  3323     9 
 3320  3322  3323  3324     9 
 3320  3322  3323  3332     9 
 3322  3323  3324  3325     9 
 3322  3323  3324  3328     9 
 3332  3323  3324  3325     9 
 3332  3323  3324  3328     9 
 3322  3323  3332  3319     9 
 3322  3323  3332  3331     9 
 3324  3323  3332  3319     9 
 3324  3323  3332  3331     9 
 3323  3324  3325  3326     9 
 3323  3324  3325  3327     9 
 3328  3324  3325  3326     9 
 3328  3324  3325  3327     9 
 3323  3324  3328  3329     9 
 3325  3324  3328  3329     9 
 3324  3328  3329  3330     9 
 3324  3328  3329  3331     9 
 3328  3329  3331  3332     9 
 3330  3329  3331  3332     9 
 3329  3331  3332  3319     9 
 3329  3331  3332  3323     9 
 3314  3333  3335  3317     9 
 3314  3333  3335  3336     9 
 3314  3333  3335  3337     9 
 3334  3333  3335  3317     9 
 3334  3333  3335  3336     9 
 3334  3333  3335  3337     9 
 3338  3333  3335  3317     9 
 3338  3333  3335  3336     9 
 3338  3333  3335  3337     9 
 3314  3333  3338  3339     9 
 3334  3333  3338  3339     9 
 3335  3333  3338  3339     9 
 3333  3338  3339  3340     9 
 3333  3338  3339  3341     9 
 3333  3338  3339  3342     9 
 3338  3339  3342  3343     9 
 3340  3339  3342  3343     9 
 3341  3339  3342  3343     9 
 3339  3342  3343  3344     9 
 3339  3342  3343  3345     9 
 3339  3342  3343  3346     9 
 3342  3343  3346  3347     9 
 3342  3343  3346  3348     9 
 3342  3343  3346  3366     9 
 3344  3343  3346  3347     9 
 3344  3343  3346  3348     9 
 3344  3343  3346  3366     9 
 3345  3343  3346  3347     9 
 3345  3343  3346  3348     9 
 3345  3343  3346  3366     9 
 3343  3346  3348  3349     9 
 3347  3346  3348  3349     9 
 3366  3346  3348  3349     9 
 3343  3346  3366  3367     9 
 3343  3346  3366  3368     9 
 3343  3346  3366  3371     9 
 3347  3346  3366  3367     9 
 3347  3346  3366  3368     9 
 3347  3346  3366  3371     9 
 3348  3346  3366  3367     9 
 3348  3346  3366  3368     9 
 3348  3346  3366  3371     9 
 3346  3348  3349  3350     9 
 3346  3348  3349  3351     9 
 3346  3348  3349  3368     9 
 3348  3349  3351  3352     9 
 3348  3349  3351  3365     9 
 3350  3349  3351  3352     9 
 3350  3349  3351  3365     9 
 3368  3349  3351  3352     9 
 3368  3349  3351  3365     9 
 3348  3349  3368  3366     9 
 3348  3349  3368  3369     9 
 3348  3349  3368  3370     9 
 3350  3349  3368  3366     9 
 3350  3349  3368  3369     9 
 3350  3349  3368  3370     9 
 3351  3349  3368  3366     9 
 3351  3349  3368  3369     9 
 3351  3349  3368  3370     9 
 3349  3351  3352  3353     9 
 3349  3351  3352  3354     9 
 3365  3351  3352  3353     9 
 3365  3351  3352  3354     9 
 3349  3351  3365  3355     9 
 3349  3351  3365  3364     9 
 3352  3351  3365  3355     9 
 3352  3351  3365  3364     9 
 3351  3352  3354  3355     9 
 3353  3352  3354  3355     9 
 3352  3354  3355  3356     9 
 3352  3354  3355  3365     9 
 3354  3355  3356  3357     9 
 3354  3355  3356  3358     9 
 3365  3355  3356  3357     9 
 3365  3355  3356  3358     9 
 3354  3355  3365  3351     9 
 3354  3355  3365  3364     9 
 3356  3355  3365  3351     9 
 3356  3355  3365  3364     9 
 3355  3356  3358  3359     9 
 3355  3356  3358  3360     9 
 3357  3356  3358  3359     9 
 3357  3356  3358  3360     9 
 3356  3358  3360  3361     9 
 3356  3358  3360  3364     9 
 3359  3358  3360  3361     9 
 3359  3358  3360  3364     9 
 3358  3360  3361  3362     9 
 3358  3360  3361  3363     9 
 3364  3360  3361  3362     9 
 3364  3360  3361  3363     9 
 3358  3360  3364  3365     9 
 3361  3360  3364  3365     9 
 3360  3364  3365  3351     9 
 3360  3364  3365  3355     9 
 3346  3366  3368  3349     9 
 3346  3366  3368  3369     9 
 3346  3366  3368  3370     9 
 3367  3366  3368  3349     9 
 3367  3366  3368  3369     9 
 3367  3366  3368  3370     9 
 3371  3366  3368  3349     9 
 3371  3366  3368  3369     9 
 3371  3366  3368  3370     9 
 3346  3366  3371  3372     9 
 3367  3366  3371  3372     9 
 3368  3366  3371  3372     9 
 3366  3371  3372  3373     9 
 3366  3371  3372  3374     9 
 3366  3371  3372  3375     9 
 3371  3372  3375  3376     9 
 3373  3372  3375  3376     9 
 3374  3372  3375  3376     9 
 3372  3375  3376  3377     9 
 3372  3375  3376  3378     9 
 3372  3375  3376  3379     9 
 3375  3376  3379  3380     9 
 3375  3376  3379  3381     9 
 3375  3376  3379  3396     9 
 3377  3376  3379  3380     9 
 3377  3376  3379  3381     9 
 3377  3376  3379  3396     9 
 3378  3376  3379  3380     9 
 3378  3376  3379  3381     9 
 3378  3376  3379  3396     9 
 3376  3379  3381  3382     9 
 3380  3379  3381  3382     9 
 3396  3379  3381  3382     9 
 3376  3379  3396  3397     9 
 3376  3379  3396  3398     9 
 3376  3379  3396  3401     9 
 3380  3379  3396  3397     9 
 3380  3379  3396  3398     9 
 3380  3379  3396  3401     9 
 3381  3379  3396  3397     9 
 3381  3379  3396  3398     9 
 3381  3379  3396  3401     9 
 3379  3381  3382  3383     9 
 3379  3381  3382  3384     9 
 3379  3381  3382  3398     9 
 3381  3382  3384  3385     9 
 3381  3382  3384  3394     9 
 3383  3382  3384  3385     9 
 3383  3382  3384  3394     9 
 3398  3382  3384  3385     9 
 3398  3382  3384  3394     9 
 3381  3382  3398  3396     9 
 3381  3382  3398  3399     9 
 3381  3382  3398  3400     9 
 3383  3382  3398  3396     9 
 3383  3382  3398  3399     9 
 3383  3382  3398  3400     9 
 3384  3382  3398  3396     9 
 3384  3382  3398  3399     9 
 3384  3382  3398  3400     9 
 3382  3384  3385  3386     9 
 3382  3384  3385  3387     9 
 3394  3384  3385  3386     9 
 3394  3384  3385  3387     9 
 3382  3384  3394  3393     9 
 3382  3384  3394  3395     9 
 3385  3384  3394  3393     9 
 3385  3384  3394  3395     9 
 3384  3385  3387  3388     9 
 3384  3385  3387  3389     9 
 3386  3385  3387  3388     9 
 3386  3385  3387  3389     9 
 3385  3387  3389  3390     9 
 3385  3387  3389  3393     9 
 3388  3387  3389  3390     9 
 3388  3387  3389  3393     9 
 3387  3389  3390  3391     9 
 3387  3389  3390  3392     9 
 3393  3389  3390  3391     9 
 3393  3389  3390  3392     9 
 3387  3389  3393  3394     9 
 3390  3389  3393  3394     9 
 3389  3393  3394  3384     9 
 3389  3393  3394  3395     9 
 3379  3396  3398  3382     9 
 3379  3396  3398  3399     9 
 3379  3396  3398  3400     9 
 3397  3396  3398  3382     9 
 3397  3396  3398  3399     9 
 3397  3396  3398  3400     9 
 3401  3396  3398  3382     9 
 3401  3396  3398  3399     9 
 3401  3396  3398  3400     9 
 3379  3396  3401  3402     9 
 3397  3396  3401  3402     9 
 3398  3396  3401  3402     9 
 3396  3401  3402  3403     9 
 3396  3401  3402  3404     9 
 3396  3401  3402  3405     9 
 3401  3402  3405  3406     9 
 3403  3402  3405  3406     9 
 3404  3402  3405  3406     9 
 3402  3405  3406  3407     9 
 3402  3405  3406  3408     9 
 3402  3405  3406  3409     9 
 3405  3406  3409  3410     9 
 3405  3406  3409  3411     9 
 3405  3406  3409  3429     9 
 3407  3406  3409  3410     9 
 3407  3406  3409  3411     9 
 3407  3406  3409  3429     9 
 3408  3406  3409  3410     9 
 3408  3406  3409  3411     9 
 3408  3406  3409  3429     9 
 3406  3409  3411  3412     9 
 3410  3409  3411  3412     9 
 3429  3409  3411  3412     9 
 3406  3409  3429  3430     9 
 3406  3409  3429  3431     9 
 3406  3409  3429  3434     9 
 3410  3409  3429  3430     9 
 3410  3409  3429  3431     9 
 3410  3409  3429  3434     9 
 3411  3409  3429  3430     9 
 3411  3409  3429  3431     9 
 3411  3409  3429  3434     9 
 3409  3411  3412  3413     9 
 3409  3411  3412  3414     9 
 3409  3411  3412  3431     9 
 3411  3412  3414  3415     9 
 3411  3412  3414  3428     9 
 3413  3412  3414  3415     9 
 3413  3412  3414  3428     9 
 3431  3412  3414  3415     9 
 3431  3412  3414  3428     9 
 3411  3412  3431  3429     9 
 3411  3412  3431  3432     9 
 3411  3412  3431  3433     9 
 3413  3412  3431  3429     9 
 3413  3412  3431  3432     9 
 3413  3412  3431  3433     9 
 3414  3412  3431  3429     9 
 3414  3412  3431  3432     9 
 3414  3412  3431  3433     9 
 3412  3414  3415  3416     9 
 3412  3414  3415  3417     9 
 3428  3414  3415  3416     9 
 3428  3414  3415  3417     9 
 3412  3414  3428  3418     9 
 3412  3414  3428  3427     9 
 3415  3414  3428  3418     9 
 3415  3414  3428  3427     9 
 3414  3415  3417  3418     9 
 3416  3415  3417  3418     9 
 3415  3417  3418  3419     9 
 3415  3417  3418  3428     9 
 3417  3418  3419  3420     9 
 3417  3418  3419  3421     9 
 3428  3418  3419  3420     9 
 3428  3418  3419  3421     9 
 3417  3418  3428  3414     9 
 3417  3418  3428  3427     9 
 3419  3418  3428  3414     9 
 3419  3418  3428  3427     9 
 3418  3419  3421  3422     9 
 3418  3419  3421  3423     9 
 3420  3419  3421  3422     9 
 3420  3419  3421  3423     9 
 3419  3421  3423  3424     9 
 3419  3421  3423  3427     9 
 3422  3421  3423  3424     9 
 3422  3421  3423  3427     9 
 3421  3423  3424  3425     9 
 3421  3423  3424  3426     9 
 3427  3423  3424  3425     9 
 3427  3423  3424  3426     9 
 3421  3423  3427  3428     9 
 3424  3423  3427  3428     9 
 3423  3427  3428  3414     9 
 3423  3427  3428  3418     9 
 3409  3429  3431  3412     9 
 3409  3429  3431  3432     9 
 3409  3429  3431  3433     9 
 3430  3429  3431  3412     9 
 3430  3429  3431  3432     9 
 3430  3429  3431  3433     9 
 3434  3429  3431  3412     9 
 3434  3429  3431  3432     9 
 3434  3429  3431  3433     9 
 3409  3429  3434  3435     9 
 3430  3429  3434  3435     9 
 3431  3429  3434  3435     9 
 3429  3434  3435  3436     9 
 3429  3434  3435  3437     9 
 3429  3434  3435  3438     9 
 3434  3435  3438  3439     9 
 3436  3435  3438  3439     9 
 3437  3435  3438  3439     9 
 3435  3438  3439  3440     9 
 3435  3438  3439  3441     9 
 3435  3438  3439  3442     9 
 3438  3439  3442  3443     9 
 3438  3439  3442  3444     9 
 3438  3439  3442  3462     9 
 3440  3439  3442  3443     9 
 3440  3439  3442  3444     9 
 3440  3439  3442  3462     9 
 3441  3439  3442  3443     9 
 3441  3439  3442  3444     9 
 3441  3439  3442  3462     9 
 3439  3442  3444  3445     9 
 3443  3442  3444  3445     9 
 3462  3442  3444  3445     9 
 3439  3442  3462  3463     9 
 3439  3442  3462  3464     9 
 3439  3442  3462  3467     9 
 3443  3442  3462  3463     9 
 3443  3442  3462  3464     9 
 3443  3442  3462  3467     9 
 3444  3442  3462  3463     9 
 3444  3442  3462  3464     9 
 3444  3442  3462  3467     9 
 3442  3444  3445  3446     9 
 3442  3444  3445  3447     9 
 3442  3444  3445  3464     9 
 3444  3445  3447  3448     9 
 3444  3445  3447  3461     9 
 3446  3445  3447  3448     9 
 3446  3445  3447  3461     9 
 3464  3445  3447  3448     9 
 3464  3445  3447  3461     9 
 3444  3445  3464  3462     9 
 3444  3445  3464  3465     9 
 3444  3445  3464  3466     9 
 3446  3445  3464  3462     9 
 3446  3445  3464  3465     9 
 3446  3445  3464  3466     9 
 3447  3445  3464  3462     9 
 3447  3445  3464  3465     9 
 3447  3445  3464  3466     9 
 3445  3447  3448  3449     9 
 3445  3447  3448  3450     9 
 3461  3447  3448  3449     9 
 3461  3447  3448  3450     9 
 3445  3447  3461  3451     9 
 3445  3447  3461  3460     9 
 3448  3447  3461  3451     9 
 3448  3447  3461  3460     9 
 3447  3448  3450  3451     9 
 3449  3448  3450  3451     9 
 3448  3450  3451  3452     9 
 3448  3450  3451  3461     9 
 3450  3451  3452  3453     9 
 3450  3451  3452  3454     9 
 3461  3451  3452  3453     9 
 3461  3451  3452  3454     9 
 3450  3451  3461  3447     9 
 3450  3451  3461  3460     9 
 3452  3451  3461  3447     9 
 3452  3451  3461  3460     9 
 3451  3452  3454  3455     9 
 3451  3452  3454  3456     9 
 3453  3452  3454  3455     9 
 3453  3452  3454  3456     9 
 3452  3454  3456  3457     9 
 3452  3454  3456  3460     9 
 3455  3454  3456  3457     9 
 3455  3454  3456  3460     9 
 3454  3456  3457  3458     9 
 3454  3456  3457  3459     9 
 3460  3456  3457  3458     9 
 3460  3456  3457  3459     9 
 3454  3456  3460  3461     9 
 3457  3456  3460  3461     9 
 3456  3460  3461  3447     9 
 3456  3460  3461  3451     9 
 3442  3462  3464  3445     9 
 3442  3462  3464  3465     9 
 3442  3462  3464  3466     9 
 3463  3462  3464  3445     9 
 3463  3462  3464  3465     9 
 3463  3462  3464  3466     9 
 3467  3462  3464  3445     9 
 3467  3462  3464  3465     9 
 3467  3462  3464  3466     9 
 3442  3462  3467  3468     9 
 3463  3462  3467  3468     9 
 3464  3462  3467  3468     9 
 3462  3467  3468  3469     9 
 3462  3467  3468  3470     9 
 3462  3467  3468  3471     9 
 3467  3468  3471  3472     9 
 3469  3468  3471  3472     9 
 3470  3468  3471  3472     9 
 3468  3471  3472  3473     9 
 3468  3471  3472  3474     9 
 3468  3471  3472  3475     9 
 3471  3472  3475  3476     9 
 3471  3472  3475  3477     9 
 3471  3472  3475  3494     9 
 3473  3472  3475  3476     9 
 3473  3472  3475  3477     9 
 3473  3472  3475  3494     9 
 3474  3472  3475  3476     9 
 3474  3472  3475  3477     9 
 3474  3472  3475  3494     9 
 3472  3475  3477  3478     9 
 3476  3475  3477  3478     9 
 3494  3475  3477  3478     9 
 3472  3475  3494  3495     9 
 3472  3475  3494  3496     9 
 3472  3475  3494  3499     9 
 3476  3475  3494  3495     9 
 3476  3475  3494  3496     9 
 3476  3475  3494  3499     9 
 3477  3475  3494  3495     9 
 3477  3475  3494  3496     9 
 3477  3475  3494  3499     9 
 3475  3477  3478  3479     9 
 3475  3477  3478  3480     9 
 3475  3477  3478  3496     9 
 3477  3478  3480  3481     9 
 3477  3478  3480  3493     9 
 3479  3478  3480  3481     9 
 3479  3478  3480  3493     9 
 3496  3478  3480  3481     9 
 3496  3478  3480  3493     9 
 3477  3478  3496  3494     9 
 3477  3478  3496  3497     9 
 3477  3478  3496  3498     9 
 3479  3478  3496  3494     9 
 3479  3478  3496  3497     9 
 3479  3478  3496  3498     9 
 3480  3478  3496  3494     9 
 3480  3478  3496  3497     9 
 3480  3478  3496  3498     9 
 3478  3480  3481  3482     9 
 3478  3480  3481  3483     9 
 3493  3480  3481  3482     9 
 3493  3480  3481  3483     9 
 3478  3480  3493  3484     9 
 3478  3480  3493  3492     9 
 3481  3480  3493  3484     9 
 3481  3480  3493  3492     9 
 3480  3481  3483  3484     9 
 3482  3481  3483  3484     9 
 3481  3483  3484  3485     9 
 3481  3483  3484  3493     9 
 3483  3484  3485  3486     9 
 3483  3484  3485  3489     9 
 3493  3484  3485  3486     9 
 3493  3484  3485  3489     9 
 3483  3484  3493  3480     9 
 3483  3484  3493  3492     9 
 3485  3484  3493  3480     9 
 3485  3484  3493  3492     9 
 3484  3485  3486  3487     9 
 3484  3485  3486  3488     9 
 3489  3485  3486  3487     9 
 3489  3485  3486  3488     9 
 3484  3485  3489  3490     9 
 3486  3485  3489  3490     9 
 3485  3489  3490  3491     9 
 3485  3489  3490  3492     9 
 3489  3490  3492  3493     9 
 3491  3490  3492  3493     9 
 3490  3492  3493  3480     9 
 3490  3492  3493  3484     9 
 3475  3494  3496  3478     9 
 3475  3494  3496  3497     9 
 3475  3494  3496  3498     9 
 3495  3494  3496  3478     9 
 3495  3494  3496  3497     9 
 3495  3494  3496  3498     9 
 3499  3494  3496  3478     9 
 3499  3494  3496  3497     9 
 3499  3494  3496  3498     9 
 3475  3494  3499  3500     9 
 3495  3494  3499  3500     9 
 3496  3494  3499  3500     9 
 3494  3499  3500  3501     9 
 3494  3499  3500  3502     9 
 3494  3499  3500  3503     9 
 3499  3500  3503  3504     9 
 3501  3500  3503  3504     9 
 3502  3500  3503  3504     9 
 3500  3503  3504  3505     9 
 3500  3503  3504  3506     9 
 3500  3503  3504  3507     9 
 3503  3504  3507  3508     9 
 3503  3504  3507  3509     9 
 3503  3504  3507  3524     9 
 3505  3504  3507  3508     9 
 3505  3504  3507  3509     9 
 3505  3504  3507  3524     9 
 3506  3504  3507  3508     9 
 3506  3504  3507  3509     9 
 3506  3504  3507  3524     9 
 3504  3507  3509  3510     9 
 3508  3507  3509  3510     9 
 3524  3507  3509  3510     9 
 3504  3507  3524  3525     9 
 3504  3507  3524  3526     9 
 3504  3507  3524  3529     9 
 3508  3507  3524  3525     9 
 3508  3507  3524  3526     9 
 3508  3507  3524  3529     9 
 3509  3507  3524  3525     9 
 3509  3507  3524  3526     9 
 3509  3507  3524  3529     9 
 3507  3509  3510  3511     9 
 3507  3509  3510  3512     9 
 3507  3509  3510  3526     9 
 3509  3510  3512  3513     9 
 3509  3510  3512  3522     9 
 3511  3510  3512  3513     9 
 3511  3510  3512  3522     9 
 3526  3510  3512  3513     9 
 3526  3510  3512  3522     9 
 3509  3510  3526  3524     9 
 3509  3510  3526  3527     9 
 3509  3510  3526  3528     9 
 3511  3510  3526  3524     9 
 3511  3510  3526  3527     9 
 3511  3510  3526  3528     9 
 3512  3510  3526  3524     9 
 3512  3510  3526  3527     9 
 3512  3510  3526  3528     9 
 3510  3512  3513  3514     9 
 3510  3512  3513  3515     9 
 3522  3512  3513  3514     9 
 3522  3512  3513  3515     9 
 3510  3512  3522  3521     9 
 3510  3512  3522  3523     9 
 3513  3512  3522  3521     9 
 3513  3512  3522  3523     9 
 3512  3513  3515  3516     9 
 3512  3513  3515  3517     9 
 3514  3513  3515  3516     9 
 3514  3513  3515  3517     9 
 3513  3515  3517  3518     9 
 3513  3515  3517  3521     9 
 3516  3515  3517  3518     9 
 3516  3515  3517  3521     9 
 3515  3517  3518  3519     9 
 3515  3517  3518  3520     9 
 3521  3517  3518  3519     9 
 3521  3517  3518  3520     9 
 3515  3517  3521  3522     9 
 3518  3517  3521  3522     9 
 3517  3521  3522  3512     9 
 3517  3521  3522  3523     9 
 3507  3524  3526  3510     9 
 3507  3524  3526  3527     9 
 3507  3524  3526  3528     9 
 3525  3524  3526  3510     9 
 3525  3524  3526  3527     9 
 3525  3524  3526  3528     9 
 3529  3524  3526  3510     9 
 3529  3524  3526  3527     9 
 3529  3524  3526  3528     9 
 3507  3524  3529  3530     9 
 3525  3524  3529  3530     9 
 3526  3524  3529  3530     9 
 3524  3529  3530  3531     9 
 3524  3529  3530  3532     9 
 3524  3529  3530  3533     9 
 3529  3530  3533  3534     9 
 3531  3530  3533  3534     9 
 3532  3530  3533  3534     9 
 3530  3533  3534  3535     9 
 3530  3533  3534  3536     9 
 3530  3533  3534  3537     9 
 3533  3534  3537  3538     9 
 3533  3534  3537  3539     9 
 3533  3534  3537  3554     9 
 3535  3534  3537  3538     9 
 3535  3534  3537  3539     9 
 3535  3534  3537  3554     9 
 3536  3534  3537  3538     9 
 3536  3534  3537  3539     9 
 3536  3534  3537  3554     9 
 3534  3537  3539  3540     9 
 3538  3537  3539  3540     9 
 3554  3537  3539  3540     9 
 3534  3537  3554  3555     9 
 3534  3537  3554  3556     9 
 3534  3537  3554  3559     9 
 3538  3537  3554  3555     9 
 3538  3537  3554  3556     9 
 3538  3537  3554  3559     9 
 3539  3537  3554  3555     9 
 3539  3537  3554  3556     9 
 3539  3537  3554  3559     9 
 3537  3539  3540  3541     9 
 3537  3539  3540  3542     9 
 3537  3539  3540  3556     9 
 3539  3540  3542  3543     9 
 3539  3540  3542  3552     9 
 3541  3540  3542  3543     9 
 3541  3540  3542  3552     9 
 3556  3540  3542  3543     9 
 3556  3540  3542  3552     9 
 3539  3540  3556  3554     9 
 3539  3540  3556  3557     9 
 3539  3540  3556  3558     9 
 3541  3540  3556  3554     9 
 3541  3540  3556  3557     9 
 3541  3540  3556  3558     9 
 3542  3540  3556  3554     9 
 3542  3540  3556  3557     9 
 3542  3540  3556  3558     9 
 3540  3542  3543  3544     9 
 3540  3542  3543  3545     9 
 3552  3542  3543  3544     9 
 3552  3542  3543  3545     9 
 3540  3542  3552  3551     9 
 3540  3542  3552  3553     9 
 3543  3542  3552  3551     9 
 3543  3542  3552  3553     9 
 3542  3543  3545  3546     9 
 3542  3543  3545  3547     9 
 3544  3543  3545  3546     9 
 3544  3543  3545  3547     9 
 3543  3545  3547  3548     9 
 3543  3545  3547  3551     9 
 3546  3545  3547  3548     9 
 3546  3545  3547  3551     9 
 3545  3547  3548  3549     9 
 3545  3547  3548  3550     9 
 3551  3547  3548  3549     9 
 3551  3547  3548  3550     9 
 3545  3547  3551  3552     9 
 3548  3547  3551  3552     9 
 3547  3551  3552  3542     9 
 3547  3551  3552  3553     9 
 3537  3554  3556  3540     9 
 3537  3554  3556  3557     9 
 3537  3554  3556  3558     9 
 3555  3554  3556  3540     9 
 3555  3554  3556  3557     9 
 3555  3554  3556  3558     9 
 3559  3554  3556  3540     9 
 3559  3554  3556  3557     9 
 3559  3554  3556  3558     9 
 3537  3554  3559  3560     9 
 3555  3554  3559  3560     9 
 3556  3554  3559  3560     9 
 3554  3559  3560  3561     9 
 3554  3559  3560  3562     9 
 3554  3559  3560  3563     9 
 3559  3560  3563  3564     9 
 3561  3560  3563  3564     9 
 3562  3560  3563  3564     9 
 3560  3563  3564  3565     9 
 3560  3563  3564  3566     9 
 3560  3563  3564  3567     9 
 3563  3564  3567  3568     9 
 3563  3564  3567  3569     9 
 3563  3564  3567  3586     9 
 3565  3564  3567  3568     9 
 3565  3564  3567  3569     9 
 3565  3564  3567  3586     9 
 3566  3564  3567  3568     9 
 3566  3564  3567  3569     9 
 3566  3564  3567  3586     9 
 3564  3567  3569  3570     9 
 3568  3567  3569  3570     9 
 3586  3567  3569  3570     9 
 3564  3567  3586  3587     9 
 3564  3567  3586  3588     9 
 3564  3567  3586  3591     9 
 3568  3567  3586  3587     9 
 3568  3567  3586  3588     9 
 3568  3567  3586  3591     9 
 3569  3567  3586  3587     9 
 3569  3567  3586  3588     9 
 3569  3567  3586  3591     9 
 3567  3569  3570  3571     9 
 3567  3569  3570  3572     9 
 3567  3569  3570  3588     9 
 3569  3570  3572  3573     9 
 3569  3570  3572  3585     9 
 3571  3570  3572  3573     9 
 3571  3570  3572  3585     9 
 3588  3570  3572  3573     9 
 3588  3570  3572  3585     9 
 3569  3570  3588  3586     9 
 3569  3570  3588  3589     9 
 3569  3570  3588  3590     9 
 3571  3570  3588  3586     9 
 3571  3570  3588  3589     9 
 3571  3570  3588  3590     9 
 3572  3570  3588  3586     9 
 3572  3570  3588  3589     9 
 3572  3570  3588  3590     9 
 3570  3572  3573  3574     9 
 3570  3572  3573  3575     9 
 3585  3572  3573  3574     9 
 3585  3572  3573  3575     9 
 3570  3572  3585  3576     9 
 3570  3572  3585  3584     9 
 3573  3572  3585  3576     9 
 3573  3572  3585  3584     9 
 3572  3573  3575  3576     9 
 3574  3573  3575  3576     9 
 3573  3575  3576  3577     9 
 3573  3575  3576  3585     9 
 3575  3576  3577  3578     9 
 3575  3576  3577  3581     9 
 3585  3576  3577  3578     9 
 3585  3576  3577  3581     9 
 3575  3576  3585  3572     9 
 3575  3576  3585  3584     9 
 3577  3576  3585  3572     9 
 3577  3576  3585  3584     9 
 3576  3577  3578  3579     9 
 3576  3577  3578  3580     9 
 3581  3577  3578  3579     9 
 3581  3577  3578  3580     9 
 3576  3577  3581  3582     9 
 3578  3577  3581  3582     9 
 3577  3581  3582  3583     9 
 3577  3581  3582  3584     9 
 3581  3582  3584  3585     9 
 3583  3582  3584  3585     9 
 3582  3584  3585  3572     9 
 3582  3584  3585  3576     9 
 3567  3586  3588  3570     9 
 3567  3586  3588  3589     9 
 3567  3586  3588  3590     9 
 3587  3586  3588  3570     9 
 3587  3586  3588  3589     9 
 3587  3586  3588  3590     9 
 3591  3586  3588  3570     9 
 3591  3586  3588  3589     9 
 3591  3586  3588  3590     9 
 3567  3586  3591  3592     9 
 3587  3586  3591  3592     9 
 3588  3586  3591  3592     9 
 3586  3591  3592  3593     9 
 3586  3591  3592  3594     9 
 3586  3591  3592  3595     9 
 3591  3592  3595  3596     9 
 3593  3592  3595  3596     9 
 3594  3592  3595  3596     9 
 3592  3595  3596  3597     9 
 3592  3595  3596  3598     9 
 3592  3595  3596  3599     9 
 3595  3596  3599  3600     9 
 3595  3596  3599  3601     9 
 3595  3596  3599  3616     9 
 3597  3596  3599  3600     9 
 3597  3596  3599  3601     9 
 3597  3596  3599  3616     9 
 3598  3596  3599  3600     9 
 3598  3596  3599  3601     9 
 3598  3596  3599  3616     9 
 3596  3599  3601  3602     9 
 3600  3599  3601  3602     9 
 3616  3599  3601  3602     9 
 3596  3599  3616  3617     9 
 3596  3599  3616  3618     9 
 3596  3599  3616  3621     9 
 3600  3599  3616  3617     9 
 3600  3599  3616  3618     9 
 3600  3599  3616  3621     9 
 3601  3599  3616  3617     9 
 3601  3599  3616  3618     9 
 3601  3599  3616  3621     9 
 3599  3601  3602  3603     9 
 3599  3601  3602  3604     9 
 3599  3601  3602  3618     9 
 3601  3602  3604  3605     9 
 3601  3602  3604  3614     9 
 3603  3602  3604  3605     9 
 3603  3602  3604  3614     9 
 3618  3602  3604  3605     9 
 3618  3602  3604  3614     9 
 3601  3602  3618  3616     9 
 3601  3602  3618  3619     9 
 3601  3602  3618  3620     9 
 3603  3602  3618  3616     9 
 3603  3602  3618  3619     9 
 3603  3602  3618  3620     9 
 3604  3602  3618  3616     9 
 3604  3602  3618  3619     9 
 3604  3602  3618  3620     9 
 3602  3604  3605  3606     9 
 3602  3604  3605  3607     9 
 3614  3604  3605  3606     9 
 3614  3604  3605  3607     9 
 3602  3604  3614  3613     9 
 3602  3604  3614  3615     9 
 3605  3604  3614  3613     9 
 3605  3604  3614  3615     9 
 3604  3605  3607  3608     9 
 3604  3605  3607  3609     9 
 3606  3605  3607  3608     9 
 3606  3605  3607  3609     9 
 3605  3607  3609  3610     9 
 3605  3607  3609  3613     9 
 3608  3607  3609  3610     9 
 3608  3607  3609  3613     9 
 3607  3609  3610  3611     9 
 3607  3609  3610  3612     9 
 3613  3609  3610  3611     9 
 3613  3609  3610  3612     9 
 3607  3609  3613  3614     9 
 3610  3609  3613  3614     9 
 3609  3613  3614  3604     9 
 3609  3613  3614  3615     9 
 3599  3616  3618  3602     9 
 3599  3616  3618  3619     9 
 3599  3616  3618  3620     9 
 3617  3616  3618  3602     9 
 3617  3616  3618  3619     9 
 3617  3616  3618  3620     9 
 3621  3616  3618  3602     9 
 3621  3616  3618  3619     9 
 3621  3616  3618  3620     9 
 3599  3616  3621  3622     9 
 3617  3616  3621  3622     9 
 3618  3616  3621  3622     9 
 3616  3621  3622  3623     9 
 3616  3621  3622  3624     9 
 3616  3621  3622  3625     9 
 3621  3622  3625  3626     9 
 3623  3622  3625  3626     9 
 3624  3622  3625  3626     9 
 3622  3625  3626  3627     9 
 3622  3625  3626  3628     9 
 3622  3625  3626  3629     9 
 3625  3626  3629  3630     9 
 3625  3626  3629  3631     9 
 3625  3626  3629  3646     9 
 3627  3626  3629  3630     9 
 3627  3626  3629  3631     9 
 3627  3626  3629  3646     9 
 3628  3626  3629  3630     9 
 3628  3626  3629  3631     9 
 3628  3626  3629  3646     9 
 3626  3629  3631  3632     9 
 3630  3629  3631  3632     9 
 3646  3629  3631  3632     9 
 3626  3629  3646  3647     9 
 3626  3629  3646  3648     9 
 3626  3629  3646  3651     9 
 3630  3629  3646  3647     9 
 3630  3629  3646  3648     9 
 3630  3629  3646  3651     9 
 3631  3629  3646  3647     9 
 3631  3629  3646  3648     9 
 3631  3629  3646  3651     9 
 3629  3631  3632  3633     9 
 3629  3631  3632  3634     9 
 3629  3631  3632  3648     9 
 3631  3632  3634  3635     9 
 3631  3632  3634  3644     9 
 3633  3632  3634  3635     9 
 3633  3632  3634  3644     9 
 3648  3632  3634  3635     9 
 3648  3632  3634  3644     9 
 3631  3632  3648  3646     9 
 3631  3632  3648  3649     9 
 3631  3632  3648  3650     9 
 3633  3632  3648  3646     9 
 3633  3632  3648  3649     9 
 3633  3632  3648  3650     9 
 3634  3632  3648  3646     9 
 3634  3632  3648  3649     9 
 3634  3632  3648  3650     9 
 3632  3634  3635  3636     9 
 3632  3634  3635  3637     9 
 3644  3634  3635  3636     9 
 3644  3634  3635  3637     9 
 3632  3634  3644  3643     9 
 3632  3634  3644  3645     9 
 3635  3634  3644  3643     9 
 3635  3634  3644  3645     9 
 3634  3635  3637  3638     9 
 3634  3635  3637  3639     9 
 3636  3635  3637  3638     9 
 3636  3635  3637  3639     9 
 3635  3637  3639  3640     9 
 3635  3637  3639  3643     9 
 3638  3637  3639  3640     9 
 3638  3637  3639  3643     9 
 3637  3639  3640  3641     9 
 3637  3639  3640  3642     9 
 3643  3639  3640  3641     9 
 3643  3639  3640  3642     9 
 3637  3639  3643  3644     9 
 3640  3639  3643  3644     9 
 3639  3643  3644  3634     9 
 3639  3643  3644  3645     9 
 3629  3646  3648  3632     9 
 3629  3646  3648  3649     9 
 3629  3646  3648  3650     9 
 3647  3646  3648  3632     9 
 3647  3646  3648  3649     9 
 3647  3646  3648  3650     9 
 3651  3646  3648  3632     9 
 3651  3646  3648  3649     9 
 3651  3646  3648  3650     9 
 3629  3646  3651  3652     9 
 3647  3646  3651  3652     9 
 3648  3646  3651  3652     9 
 3646  3651  3652  3653     9 
 3646  3651  3652  3654     9 
 3646  3651  3652  3655     9 
 3651  3652  3655  3656     9 
 3653  3652  3655  3656     9 
 3654  3652  3655  3656     9 
 3652  3655  3656  3657     9 
 3652  3655  3656  3658     9 
 3652  3655  3656  3659     9 
 3655  3656  3659  3660     9 
 3655  3656  3659  3661     9 
 3655  3656  3659  3676     9 
 3657  3656  3659  3660     9 
 3657  3656  3659  3661     9 
 3657  3656  3659  3676     9 
 3658  3656  3659  3660     9 
 3658  3656  3659  3661     9 
 3658  3656  3659  3676     9 
 3656  3659  3661  3662     9 
 3660  3659  3661  3662     9 
 3676  3659  3661  3662     9 
 3656  3659  3676  3677     9 
 3656  3659  3676  3678     9 
 3656  3659  3676  3681     9 
 3660  3659  3676  3677     9 
 3660  3659  3676  3678     9 
 3660  3659  3676  3681     9 
 3661  3659  3676  3677     9 
 3661  3659  3676  3678     9 
 3661  3659  3676  3681     9 
 3659  3661  3662  3663     9 
 3659  3661  3662  3664     9 
 3659  3661  3662  3678     9 
 3661  3662  3664  3665     9 
 3661  3662  3664  3674     9 
 3663  3662  3664  3665     9 
 3663  3662  3664  3674     9 
 3678  3662  3664  3665     9 
 3678  3662  3664  3674     9 
 3661  3662  3678  3676     9 
 3661  3662  3678  3679     9 
 3661  3662  3678  3680     9 
 3663  3662  3678  3676     9 
 3663  3662  3678  3679     9 
 3663  3662  3678  3680     9 
 3664  3662  3678  3676     9 
 3664  3662  3678  3679     9 
 3664  3662  3678  3680     9 
 3662  3664  3665  3666     9 
 3662  3664  3665  3667     9 
 3674  3664  3665  3666     9 
 3674  3664  3665  3667     9 
 3662  3664  3674  3673     9 
 3662  3664  3674  3675     9 
 3665  3664  3674  3673     9 
 3665  3664  3674  3675     9 
 3664  3665  3667  3668     9 
 3664  3665  3667  3669     9 
 3666  3665  3667  3668     9 
 3666  3665  3667  3669     9 
 3665  3667  3669  3670     9 
 3665  3667  3669  3673     9 
 3668  3667  3669  3670     9 
 3668  3667  3669  3673     9 
 3667  3669  3670  3671     9 
 3667  3669  3670  3672     9 
 3673  3669  3670  3671     9 
 3673  3669  3670  3672     9 
 3667  3669  3673  3674     9 
 3670  3669  3673  3674     9 
 3669  3673  3674  3664     9 
 3669  3673  3674  3675     9 
 3659  3676  3678  3662     9 
 3659  3676  3678  3679     9 
 3659  3676  3678  3680     9 
 3677  3676  3678  3662     9 
 3677  3676  3678  3679     9 
 3677  3676  3678  3680     9 
 3681  3676  3678  3662     9 
 3681  3676  3678  3679     9 
 3681  3676  3678  3680     9 
 3659  3676  3681  3682     9 
 3677  3676  3681  3682     9 
 3678  3676  3681  3682     9 
 3676  3681  3682  3683     9 
 3676  3681  3682  3684     9 
 3676  3681  3682  3685     9 
 3681  3682  3685  3686     9 
 3683  3682  3685  3686     9 
 3684  3682  3685  3686     9 
 3682  3685  3686  3687     9 
 3682  3685  3686  3688     9 
 3682  3685  3686  3689     9 
 3685  3686  3689  3690     9 
 3685  3686  3689  3691     9 
 3685  3686  3689  3706     9 
 3687  3686  3689  3690     9 
 3687  3686  3689  3691     9 
 3687  3686  3689  3706     9 
 3688  3686  3689  3690     9 
 3688  3686  3689  3691     9 
 3688  3686  3689  3706     9 
 3686  3689  3691  3692     9 
 3690  3689  3691  3692     9 
 3706  3689  3691  3692     9 
 3686  3689  3706  3707     9 
 3686  3689  3706  3708     9 
 3686  3689  3706  3711     9 
 3690  3689  3706  3707     9 
 3690  3689  3706  3708     9 
 3690  3689  3706  3711     9 
 3691  3689  3706  3707     9 
 3691  3689  3706  3708     9 
 3691  3689  3706  3711     9 
 3689  3691  3692  3693     9 
 3689  3691  3692  3694     9 
 3689  3691  3692  3708     9 
 3691  3692  3694  3695     9 
 3691  3692  3694  3704     9 
 3693  3692  3694  3695     9 
 3693  3692  3694  3704     9 
 3708  3692  3694  3695     9 
 3708  3692  3694  3704     9 
 3691  3692  3708  3706     9 
 3691  3692  3708  3709     9 
 3691  3692  3708  3710     9 
 3693  3692  3708  3706     9 
 3693  3692  3708  3709     9 
 3693  3692  3708  3710     9 
 3694  3692  3708  3706     9 
 3694  3692  3708  3709     9 
 3694  3692  3708  3710     9 
 3692  3694  3695  3696     9 
 3692  3694  3695  3697     9 
 3704  3694  3695  3696     9 
 3704  3694  3695  3697     9 
 3692  3694  3704  3703     9 
 3692  3694  3704  3705     9 
 3695  3694  3704  3703     9 
 3695  3694  3704  3705     9 
 3694  3695  3697  3698     9 
 3694  3695  3697  3699     9 
 3696  3695  3697  3698     9 
 3696  3695  3697  3699     9 
 3695  3697  3699  3700     9 
 3695  3697  3699  3703     9 
 3698  3697  3699  3700     9 
 3698  3697  3699  3703     9 
 3697  3699  3700  3701     9 
 3697  3699  3700  3702     9 
 3703  3699  3700  3701     9 
 3703  3699  3700  3702     9 
 3697  3699  3703  3704     9 
 3700  3699  3703  3704     9 
 3699  3703  3704  3694     9 
 3699  3703  3704  3705     9 
 3689  3706  3708  3692     9 
 3689  3706  3708  3709     9 
 3689  3706  3708  3710     9 
 3707  3706  3708  3692     9 
 3707  3706  3708  3709     9 
 3707  3706  3708  3710     9 
 3711  3706  3708  3692     9 
 3711  3706  3708  3709     9 
 3711  3706  3708  3710     9 
 3689  3706  3711  3712     9 
 3707  3706  3711  3712     9 
 3708  3706  3711  3712     9 
 3706  3711  3712  3713     9 
 3706  3711  3712  3714     9 
 3706  3711  3712  3715     9 
 3711  3712  3715  3716     9 
 3713  3712  3715  3716     9 
 3714  3712  3715  3716     9 
 3712  3715  3716  3717     9 
 3712  3715  3716  3718     9 
 3712  3715  3716  3719     9 
 3715  3716  3719  3720     9 
 3715  3716  3719  3721     9 
 3715  3716  3719  3738     9 
 3717  3716  3719  3720     9 
 3717  3716  3719  3721     9 
 3717  3716  3719  3738     9 
 3718  3716  3719  3720     9 
 3718  3716  3719  3721     9 
 3718  3716  3719  3738     9 
 3716  3719  3721  3722     9 
 3720  3719  3721  3722     9 
 3738  3719  3721  3722     9 
 3716  3719  3738  3739     9 
 3716  3719  3738  3740     9 
 3716  3719  3738  3743     9 
 3720  3719  3738  3739     9 
 3720  3719  3738  3740     9 
 3720  3719  3738  3743     9 
 3721  3719  3738  3739     9 
 3721  3719  3738  3740     9 
 3721  3719  3738  3743     9 
 3719  3721  3722  3723     9 
 3719  3721  3722  3724     9 
 3719  3721  3722  3740     9 
 3721  3722  3724  3725     9 
 3721  3722  3724  3736     9 
 3723  3722  3724  3725     9 
 3723  3722  3724  3736     9 
 3740  3722  3724  3725     9 
 3740  3722  3724  3736     9 
 3721  3722  3740  3738     9 
 3721  3722  3740  3741     9 
 3721  3722  3740  3742     9 
 3723  3722  3740  3738     9 
 3723  3722  3740  3741     9 
 3723  3722  3740  3742     9 
 3724  3722  3740  3738     9 
 3724  3722  3740  3741     9 
 3724  3722  3740  3742     9 
 3722  3724  3725  3726     9 
 3722  3724  3725  3727     9 
 3736  3724  3725  3726     9 
 3736  3724  3725  3727     9 
 3722  3724  3736  3734     9 
 3722  3724  3736  3737     9 
 3725  3724  3736  3734     9 
 3725  3724  3736  3737     9 
 3724  3725  3727  3728     9 
 3724  3725  3727  3732     9 
 3726  3725  3727  3728     9 
 3726  3725  3727  3732     9 
 3725  3727  3728  3729     9 
 3725  3727  3728  3730     9 
 3725  3727  3728  3731     9 
 3732  3727  3728  3729     9 
 3732  3727  3728  3730     9 
 3732  3727  3728  3731     9 
 3725  3727  3732  3733     9 
 3725  3727  3732  3734     9 
 3728  3727  3732  3733     9 
 3728  3727  3732  3734     9 
 3727  3732  3734  3735     9 
 3727  3732  3734  3736     9 
 3733  3732  3734  3735     9 
 3733  3732  3734  3736     9 
 3732  3734  3736  3724     9 
 3732  3734  3736  3737     9 
 3735  3734  3736  3724     9 
 3735  3734  3736  3737     9 
 3719  3738  3740  3722     9 
 3719  3738  3740  3741     9 
 3719  3738  3740  3742     9 
 3739  3738  3740  3722     9 
 3739  3738  3740  3741     9 
 3739  3738  3740  3742     9 
 3743  3738  3740  3722     9 
 3743  3738  3740  3741     9 
 3743  3738  3740  3742     9 
 3719  3738  3743  3744     9 
 3739  3738  3743  3744     9 
 3740  3738  3743  3744     9 
 3738  3743  3744  3745     9 
 3738  3743  3744  3746     9 
 3738  3743  3744  3747     9 
 3743  3744  3747  3748     9 
 3745  3744  3747  3748     9 
 3746  3744  3747  3748     9 
 3744  3747  3748  3749     9 
 3744  3747  3748  3750     9 
 3744  3747  3748  3751     9 
 3747  3748  3751  3752     9 
 3747  3748  3751  3753     9 
 3747  3748  3751  3768     9 
 3749  3748  3751  3752     9 
 3749  3748  3751  3753     9 
 3749  3748  3751  3768     9 
 3750  3748  3751  3752     9 
 3750  3748  3751  3753     9 
 3750  3748  3751  3768     9 
 3748  3751  3753  3754     9 
 3752  3751  3753  3754     9 
 3768  3751  3753  3754     9 
 3748  3751  3768  3769     9 
 3748  3751  3768  3770     9 
 3748  3751  3768  3773     9 
 3752  3751  3768  3769     9 
 3752  3751  3768  3770     9 
 3752  3751  3768  3773     9 
 3753  3751  3768  3769     9 
 3753  3751  3768  3770     9 
 3753  3751  3768  3773     9 
 3751  3753  3754  3755     9 
 3751  3753  3754  3756     9 
 3751  3753  3754  3770     9 
 3753  3754  3756  3757     9 
 3753  3754  3756  3766     9 
 3755  3754  3756  3757     9 
 3755  3754  3756  3766     9 
 3770  3754  3756  3757     9 
 3770  3754  3756  3766     9 
 3753  3754  3770  3768     9 
 3753  3754  3770  3771     9 
 3753  3754  3770  3772     9 
 3755  3754  3770  3768     9 
 3755  3754  3770  3771     9 
 3755  3754  3770  3772     9 
 3756  3754  3770  3768     9 
 3756  3754  3770  3771     9 
 3756  3754  3770  3772     9 
 3754  3756  3757  3758     9 
 3754  3756  3757  3759     9 
 3766  3756  3757  3758     9 
 3766  3756  3757  3759     9 
 3754  3756  3766  3765     9 
 3754  3756  3766  3767     9 
 3757  3756  3766  3765     9 
 3757  3756  3766  3767     9 
 3756  3757  3759  3760     9 
 3756  3757  3759  3761     9 
 3758  3757  3759  3760     9 
 3758  3757  3759  3761     9 
 3757  3759  3761  3762     9 
 3757  3759  3761  3765     9 
 3760  3759  3761  3762     9 
 3760  3759  3761  3765     9 
 3759  3761  3762  3763     9 
 3759  3761  3762  3764     9 
 3765  3761  3762  3763     9 
 3765  3761  3762  3764     9 
 3759  3761  3765  3766     9 
 3762  3761  3765  3766     9 
 3761  3765  3766  3756     9 
 3761  3765  3766  3767     9 
 3751  3768  3770  3754     9 
 3751  3768  3770  3771     9 
 3751  3768  3770  3772     9 
 3769  3768  3770  3754     9 
 3769  3768  3770  3771     9 
 3769  3768  3770  3772     9 
 3773  3768  3770  3754     9 
 3773  3768  3770  3771     9 
 3773  3768  3770  3772     9 
 3751  3768  3773  3774     9 
 3769  3768  3773  3774     9 
 3770  3768  3773  3774     9 
 3768  3773  3774  3775     9 
 3768  3773  3774  3776     9 
 3768  3773  3774  3777     9 
 3773  3774  3777  3778     9 
 3775  3774  3777  3778     9 
 3776  3774  3777  3778     9 
 3774  3777  3778  3779     9 
 3774  3777  3778  3780     9 
 3774  3777  3778  3781     9 
 3777  3778  3781  3782     9 
 3777  3778  3781  3783     9 
 3777  3778  3781  3798     9 
 3779  3778  3781  3782     9 
 3779  3778  3781  3783     9 
 3779  3778  3781  3798     9 
 3780  3778  3781  3782     9 
 3780  3778  3781  3783     9 
 3780  3778  3781  3798     9 
 3778  3781  3783  3784     9 
 3782  3781  3783  3784     9 
 3798  3781  3783  3784     9 
 3778  3781  3798  3799     9 
 3778  3781  3798  3800     9 
 3778  3781  3798  3803     9 
 3782  3781  3798  3799     9 
 3782  3781  3798  3800     9 
 3782  3781  3798  3803     9 
 3783  3781  3798  3799     9 
 3783  3781  3798  3800     9 
 3783  3781  3798  3803     9 
 3781  3783  3784  3785     9 
 3781  3783  3784  3786     9 
 3781  3783  3784  3800     9 
 3783  3784  3786  3787     9 
 3783  3784  3786  3796     9 
 3785  3784  3786  3787     9 
 3785  3784  3786  3796     9 
 3800  3784  3786  3787     9 
 3800  3784  3786  3796     9 
 3783  3784  3800  3798     9 
 3783  3784  3800  3801     9 
 3783  3784  3800  3802     9 
 3785  3784  3800  3798     9 
 3785  3784  3800  3801     9 
 3785  3784  3800  3802     9 
 3786  3784  3800  3798     9 
 3786  3784  3800  3801     9 
 3786  3784  3800  3802     9 
 3784  3786  3787  3788     9 
 3784  3786  3787  3789     9 
 3796  3786  3787  3788     9 
 3796  3786  3787  3789     9 
 3784  3786  3796  3795     9 
 3784  3786  3796  3797     9 
 3787  3786  3796  3795     9 
 3787  3786  3796  3797     9 
 3786  3787  3789  3790     9 
 3786  3787  3789  3791     9 
 3788  3787  3789  3790     9 
 3788  3787  3789  3791     9 
 3787  3789  3791  3792     9 
 3787  3789  3791  3795     9 
 3790  3789  3791  3792     9 
 3790  3789  3791  3795     9 
 3789  3791  3792  3793     9 
 3789  3791  3792  3794     9 
 3795  3791  3792  3793     9 
 3795  3791  3792  3794     9 
 3789  3791  3795  3796     9 
 3792  3791  3795  3796     9 
 3791  3795  3796  3786     9 
 3791  3795  3796  3797     9 
 3781  3798  3800  3784     9 
 3781  3798  3800  3801     9 
 3781  3798  3800  3802     9 
 3799  3798  3800  3784     9 
 3799  3798  3800  3801     9 
 3799  3798  3800  3802     9 
 3803  3798  3800  3784     9 
 3803  3798  3800  3801     9 
 3803  3798  3800  3802     9 
 3781  3798  3803  3804     9 
 3799  3798  3803  3804     9 
 3800  3798  3803  3804     9 
 3798  3803  3804  3805     9 
 3798  3803  3804  3806     9 
 3798  3803  3804  3807     9 
 3803  3804  3807  3808     9 
 3805  3804  3807  3808     9 
 3806  3804  3807  3808     9 
 3804  3807  3808  3809     9 
 3804  3807  3808  3810     9 
 3804  3807  3808  3811     9 
 3807  3808  3811  3812     9 
 3807  3808  3811  3813     9 
 3807  3808  3811  3830     9 
 3809  3808  3811  3812     9 
 3809  3808  3811  3813     9 
 3809  3808  3811  3830     9 
 3810  3808  3811  3812     9 
 3810  3808  3811  3813     9 
 3810  3808  3811  3830     9 
 3808  3811  3813  3814     9 
 3812  3811  3813  3814     9 
 3830  3811  3813  3814     9 
 3808  3811  3830  3831     9 
 3808  3811  3830  3832     9 
 3808  3811  3830  3835     9 
 3812  3811  3830  3831     9 
 3812  3811  3830  3832     9 
 3812  3811  3830  3835     9 
 3813  3811  3830  3831     9 
 3813  3811  3830  3832     9 
 3813  3811  3830  3835     9 
 3811  3813  3814  3815     9 
 3811  3813  3814  3816     9 
 3811  3813  3814  3832     9 
 3813  3814  3816  3817     9 
 3813  3814  3816  3828     9 
 3815  3814  3816  3817     9 
 3815  3814  3816  3828     9 
 3832  3814  3816  3817     9 
 3832  3814  3816  3828     9 
 3813  3814  3832  3830     9 
 3813  3814  3832  3833     9 
 3813  3814  3832  3834     9 
 3815  3814  3832  3830     9 
 3815  3814  3832  3833     9 
 3815  3814  3832  3834     9 
 3816  3814  3832  3830     9 
 3816  3814  3832  3833     9 
 3816  3814  3832  3834     9 
 3814  3816  3817  3818     9 
 3814  3816  3817  3819     9 
 3828  3816  3817  3818     9 
 3828  3816  3817  3819     9 
 3814  3816  3828  3826     9 
 3814  3816  3828  3829     9 
 3817  3816  3828  3826     9 
 3817  3816  3828  3829     9 
 3816  3817  3819  3820     9 
 3816  3817  3819  3824     9 
 3818  3817  3819  3820     9 
 3818  3817  3819  3824     9 
 3817  3819  3820  3821     9 
 3817  3819  3820  3822     9 
 3817  3819  3820  3823     9 
 3824  3819  3820  3821     9 
 3824  3819  3820  3822     9 
 3824  3819  3820  3823     9 
 3817  3819  3824  3825     9 
 3817  3819  3824  3826     9 
 3820  3819  3824  3825     9 
 3820  3819  3824  3826     9 
 3819  3824  3826  3827     9 
 3819  3824  3826  3828     9 
 3825  3824  3826  3827     9 
 3825  3824  3826  3828     9 
 3824  3826  3828  3816     9 
 3824  3826  3828  3829     9 
 3827  3826  3828  3816     9 
 3827  3826  3828  3829     9 
 3811  3830  3832  3814     9 
 3811  3830  3832  3833     9 
 3811  3830  3832  3834     9 
 3831  3830  3832  3814     9 
 3831  3830  3832  3833     9 
 3831  3830  3832  3834     9 
 3835  3830  3832  3814     9 
 3835  3830  3832  3833     9 
 3835  3830  3832  3834     9 
 3811  3830  3835  3836     9 
 3831  3830  3835  3836     9 
 3832  3830  3835  3836     9 
 3830  3835  3836  3837     9 
 3830  3835  3836  3838     9 
 3830  3835  3836  3839     9 
 3835  3836  3839  3840     9 
 3837  3836  3839  3840     9 
 3838  3836  3839  3840     9 
 3836  3839  3840  3841     9 
 3836  3839  3840  3842     9 
 3836  3839  3840  3843     9 
 3839  3840  3843  3844     9 
 3839  3840  3843  3845     9 
 3839  3840  3843  3863     9 
 3841  3840  3843  3844     9 
 3841  3840  3843  3845     9 
 3841  3840  3843  3863     9 
 3842  3840  3843  3844     9 
 3842  3840  3843  3845     9 
 3842  3840  3843  3863     9 
 3840  3843  3845  3846     9 
 3844  3843  3845  3846     9 
 3863  3843  3845  3846     9 
 3840  3843  3863  3864     9 
 3840  3843  3863  3865     9 
 3840  3843  3863  3868     9 
 3844  3843  3863  3864     9 
 3844  3843  3863  3865     9 
 3844  3843  3863  3868     9 
 3845  3843  3863  3864     9 
 3845  3843  3863  3865     9 
 3845  3843  3863  3868     9 
 3843  3845  3846  3847     9 
 3843  3845  3846  3848     9 
 3843  3845  3846  3865     9 
 3845  3846  3848  3849     9 
 3845  3846  3848  3862     9 
 3847  3846  3848  3849     9 
 3847  3846  3848  3862     9 
 3865  3846  3848  3849     9 
 3865  3846  3848  3862     9 
 3845  3846  3865  3863     9 
 3845  3846  3865  3866     9 
 3845  3846  3865  3867     9 
 3847  3846  3865  3863     9 
 3847  3846  3865  3866     9 
 3847  3846  3865  3867     9 
 3848  3846  3865  3863     9 
 3848  3846  3865  3866     9 
 3848  3846  3865  3867     9 
 3846  3848  3849  3850     9 
 3846  3848  3849  3851     9 
 3862  3848  3849  3850     9 
 3862  3848  3849  3851     9 
 3846  3848  3862  3852     9 
 3846  3848  3862  3861     9 
 3849  3848  3862  3852     9 
 3849  3848  3862  3861     9 
 3848  3849  3851  3852     9 
 3850  3849  3851  3852     9 
 3849  3851  3852  3853     9 
 3849  3851  3852  3862     9 
 3851  3852  3853  3854     9 
 3851  3852  3853  3855     9 
 3862  3852  3853  3854     9 
 3862  3852  3853  3855     9 
 3851  3852  3862  3848     9 
 3851  3852  3862  3861     9 
 3853  3852  3862  3848     9 
 3853  3852  3862  3861     9 
 3852  3853  3855  3856     9 
 3852  3853  3855  3857     9 
 3854  3853  3855  3856     9 
 3854  3853  3855  3857     9 
 3853  3855  3857  3858     9 
 3853  3855  3857  3861     9 
 3856  3855  3857  3858     9 
 3856  3855  3857  3861     9 
 3855  3857  3858  3859     9 
 3855  3857  3858  3860     9 
 3861  3857  3858  3859     9 
 3861  3857  3858  3860     9 
 3855  3857  3861  3862     9 
 3858  3857  3861  3862     9 
 3857  3861  3862  3848     9 
 3857  3861  3862  3852     9 
 3843  3863  3865  3846     9 
 3843  3863  3865  3866     9 
 3843  3863  3865  3867     9 
 3864  3863  3865  3846     9 
 3864  3863  3865  3866     9 
 3864  3863  3865  3867     9 
 3868  3863  3865  3846     9 
 3868  3863  3865  3866     9 
 3868  3863  3865  3867     9 
 3843  3863  3868  3869     9 
 3864  3863  3868  3869     9 
 3865  3863  3868  3869     9 
 3863  3868  3869  3870     9 
 3863  3868  3869  3871     9 
 3863  3868  3869  3872     9 
 3868  3869  3872  3873     9 
 3870  3869  3872  3873     9 
 3871  3869  3872  3873     9 
 3869  3872  3873  3874     9 
 3869  3872  3873  3875     9 
 3869  3872  3873  3876     9 
 3872  3873  3876  3877     9 
 3872  3873  3876  3878     9 
 3872  3873  3876  3896     9 
 3874  3873  3876  3877     9 
 3874  3873  3876  3878     9 
 3874  3873  3876  3896     9 
 3875  3873  3876  3877     9 
 3875  3873  3876  3878     9 
 3875  3873  3876  3896     9 
 3873  3876  3878  3879     9 
 3877  3876  3878  3879     9 
 3896  3876  3878  3879     9 
 3873  3876  3896  3897     9 
 3873  3876  3896  3898     9 
 3873  3876  3896  3901     9 
 3877  3876  3896  3897     9 
 3877  3876  3896  3898     9 
 3877  3876  3896  3901     9 
 3878  3876  3896  3897     9 
 3878  3876  3896  3898     9 
 3878  3876  3896  3901     9 
 3876  3878  3879  3880     9 
 3876  3878  3879  3881     9 
 3876  3878  3879  3898     9 
 3878  3879  3881  3882     9 
 3878  3879  3881  3895     9 
 3880  3879  3881  3882     9 
 3880  3879  3881  3895     9 
 3898  3879  3881  3882     9 
 3898  3879  3881  3895     9 
 3878  3879  3898  3896     9 
 3878  3879  3898  3899     9 
 3878  3879  3898  3900     9 
 3880  3879  3898  3896     9 
 3880  3879  3898  3899     9 
 3880  3879  3898  3900     9 
 3881  3879  3898  3896     9 
 3881  3879  3898  3899     9 
 3881  3879  3898  3900     9 
 3879  3881  3882  3883     9 
 3879  3881  3882  3884     9 
 3895  3881  3882  3883     9 
 3895  3881  3882  3884     9 
 3879  3881  3895  3885     9 
 3879  3881  3895  3894     9 
 3882  3881  3895  3885     9 
 3882  3881  3895  3894     9 
 3881  3882  3884  3885     9 
 3883  3882  3884  3885     9 
 3882  3884  3885  3886     9 
 3882  3884  3885  3895     9 
 3884  3885  3886  3887     9 
 3884  3885  3886  3888     9 
 3895  3885  3886  3887     9 
 3895  3885  3886  3888     9 
 3884  3885  3895  3881     9 
 3884  3885  3895  3894     9 
 3886  3885  3895  3881     9 
 3886  3885  3895  3894     9 
 3885  3886  3888  3889     9 
 3885  3886  3888  3890     9 
 3887  3886  3888  3889     9 
 3887  3886  3888  3890     9 
 3886  3888  3890  3891     9 
 3886  3888  3890  3894     9 
 3889  3888  3890  3891     9 
 3889  3888  3890  3894     9 
 3888  3890  3891  3892     9 
 3888  3890  3891  3893     9 
 3894  3890  3891  3892     9 
 3894  3890  3891  3893     9 
 3888  3890  3894  3895     9 
 3891  3890  3894  3895     9 
 3890  3894  3895  3881     9 
 3890  3894  3895  3885     9 
 3876  3896  3898  3879     9 
 3876  3896  3898  3899     9 
 3876  3896  3898  3900     9 
 3897  3896  3898  3879     9 
 3897  3896  3898  3899     9 
 3897  3896  3898  3900     9 
 3901  3896  3898  3879     9 
 3901  3896  3898  3899     9 
 3901  3896  3898  3900     9 
 3876  3896  3901  3902     9 
 3897  3896  3901  3902     9 
 3898  3896  3901  3902     9 
 3896  3901  3902  3903     9 
 3896  3901  3902  3904     9 
 3896  3901  3902  3905     9 
 3901  3902  3905  3906     9 
 3903  3902  3905  3906     9 
 3904  3902  3905  3906     9 
 3902  3905  3906  3907     9 
 3902  3905  3906  3908     9 
 3902  3905  3906  3909     9 
 3905  3906  3909  3910     9 
 3905  3906  3909  3911     9 
 3905  3906  3909  3929     9 
 3907  3906  3909  3910     9 
 3907  3906  3909  3911     9 
 3907  3906  3909  3929     9 
 3908  3906  3909  3910     9 
 3908  3906  3909  3911     9 
 3908  3906  3909  3929     9 
 3906  3909  3911  3912     9 
 3910  3909  3911  3912     9 
 3929  3909  3911  3912     9 
 3906  3909  3929  3930     9 
 3906  3909  3929  3931     9 
 3906  3909  3929  3934     9 
 3910  3909  3929  3930     9 
 3910  3909  3929  3931     9 
 3910  3909  3929  3934     9 
 3911  3909  3929  3930     9 
 3911  3909  3929  3931     9 
 3911  3909  3929  3934     9 
 3909  3911  3912  3913     9 
 3909  3911  3912  3914     9 
 3909  3911  3912  3931     9 
 3911  3912  3914  3915     9 
 3911  3912  3914  3928     9 
 3913  3912  3914  3915     9 
 3913  3912  3914  3928     9 
 3931  3912  3914  3915     9 
 3931  3912  3914  3928     9 
 3911  3912  3931  3929     9 
 3911  3912  3931  3932     9 
 3911  3912  3931  3933     9 
 3913  3912  3931  3929     9 
 3913  3912  3931  3932     9 
 3913  3912  3931  3933     9 
 3914  3912  3931  3929     9 
 3914  3912  3931  3932     9 
 3914  3912  3931  3933     9 
 3912  3914  3915  3916     9 
 3912  3914  3915  3917     9 
 3928  3914  3915  3916     9 
 3928  3914  3915  3917     9 
 3912  3914  3928  3918     9 
 3912  3914  3928  3927     9 
 3915  3914  3928  3918     9 
 3915  3914  3928  3927     9 
 3914  3915  3917  3918     9 
 3916  3915  3917  3918     9 
 3915  3917  3918  3919     9 
 3915  3917  3918  3928     9 
 3917  3918  3919  3920     9 
 3917  3918  3919  3921     9 
 3928  3918  3919  3920     9 
 3928  3918  3919  3921     9 
 3917  3918  3928  3914     9 
 3917  3918  3928  3927     9 
 3919  3918  3928  3914     9 
 3919  3918  3928  3927     9 
 3918  3919  3921  3922     9 
 3918  3919  3921  3923     9 
 3920  3919  3921  3922     9 
 3920  3919  3921  3923     9 
 3919  3921  3923  3924     9 
 3919  3921  3923  3927     9 
 3922  3921  3923  3924     9 
 3922  3921  3923  3927     9 
 3921  3923  3924  3925     9 
 3921  3923  3924  3926     9 
 3927  3923  3924  3925     9 
 3927  3923  3924  3926     9 
 3921  3923  3927  3928     9 
 3924  3923  3927  3928     9 
 3923  3927  3928  3914     9 
 3923  3927  3928  3918     9 
 3909  3929  3931  3912     9 
 3909  3929  3931  3932     9 
 3909  3929  3931  3933     9 
 3930  3929  3931  3912     9 
 3930  3929  3931  3932     9 
 3930  3929  3931  3933     9 
 3934  3929  3931  3912     9 
 3934  3929  3931  3932     9 
 3934  3929  3931  3933     9 
 3909  3929  3934  3935     9 
 3930  3929  3934  3935     9 
 3931  3929  3934  3935     9 
 3929  3934  3935  3936     9 
 3929  3934  3935  3937     9 
 3929  3934  3935  3938     9 
 3934  3935  3938  3939     9 
 3936  3935  3938  3939     9 
 3937  3935  3938  3939     9 
 3935  3938  3939  3940     9 
 3935  3938  3939  3941     9 
 3935  3938  3939  3942     9 
 3938  3939  3942  3943     9 
 3938  3939  3942  3944     9 
 3938  3939  3942  3959     9 
 3940  3939  3942  3943     9 
 3940  3939  3942  3944     9 
 3940  3939  3942  3959     9 
 3941  3939  3942  3943     9 
 3941  3939  3942  3944     9 
 3941  3939  3942  3959     9 
 3939  3942  3944  3945     9 
 3943  3942  3944  3945     9 
 3959  3942  3944  3945     9 
 3939  3942  3959  3960     9 
 3939  3942  3959  3961     9 
 3939  3942  3959  3964     9 
 3943  3942  3959  3960     9 
 3943  3942  3959  3961     9 
 3943  3942  3959  3964     9 
 3944  3942  3959  3960     9 
 3944  3942  3959  3961     9 
 3944  3942  3959  3964     9 
 3942  3944  3945  3946     9 
 3942  3944  3945  3947     9 
 3942  3944  3945  3961     9 
 3944  3945  3947  3948     9 
 3944  3945  3947  3957     9 
 3946  3945  3947  3948     9 
 3946  3945  3947  3957     9 
 3961  3945  3947  3948     9 
 3961  3945  3947  3957     9 
 3944  3945  3961  3959     9 
 3944  3945  3961  3962     9 
 3944  3945  3961  3963     9 
 3946  3945  3961  3959     9 
 3946  3945  3961  3962     9 
 3946  3945  3961  3963     9 
 3947  3945  3961  3959     9 
 3947  3945  3961  3962     9 
 3947  3945  3961  3963     9 
 3945  3947  3948  3949     9 
 3945  3947  3948  3950     9 
 3957  3947  3948  3949     9 
 3957  3947  3948  3950     9 
 3945  3947  3957  3956     9 
 3945  3947  3957  3958     9 
 3948  3947  3957  3956     9 
 3948  3947  3957  3958     9 
 3947  3948  3950  3951     9 
 3947  3948  3950  3952     9 
 3949  3948  3950  3951     9 
 3949  3948  3950  3952     9 
 3948  3950  3952  3953     9 
 3948  3950  3952  3956     9 
 3951  3950  3952  3953     9 
 3951  3950  3952  3956     9 
 3950  3952  3953  3954     9 
 3950  3952  3953  3955     9 
 3956  3952  3953  3954     9 
 3956  3952  3953  3955     9 
 3950  3952  3956  3957     9 
 3953  3952  3956  3957     9 
 3952  3956  3957  3947     9 
 3952  3956  3957  3958     9 
 3942  3959  3961  3945     9 
 3942  3959  3961  3962     9 
 3942  3959  3961  3963     9 
 3960  3959  3961  3945     9 
 3960  3959  3961  3962     9 
 3960  3959  3961  3963     9 
 3964  3959  3961  3945     9 
 3964  3959  3961  3962     9 
 3964  3959  3961  3963     9 
 3942  3959  3964  3965     9 
 3960  3959  3964  3965     9 
 3961  3959  3964  3965     9 
 3959  3964  3965  3966     9 
 3959  3964  3965  3967     9 
 3959  3964  3965  3968     9 
 3964  3965  3968  3969     9 
 3966  3965  3968  3969     9 
 3967  3965  3968  3969     9 
 3965  3968  3969  3970     9 
 3965  3968  3969  3971     9 
 3965  3968  3969  3972     9 
 3968  3969  3972  3973     9 
 3968  3969  3972  3974     9 
 3968  3969  3972  3989     9 
 3970  3969  3972  3973     9 
 3970  3969  3972  3974     9 
 3970  3969  3972  3989     9 
 3971  3969  3972  3973     9 
 3971  3969  3972  3974     9 
 3971  3969  3972  3989     9 
 3969  3972  3974  3975     9 
 3973  3972  3974  3975     9 
 3989  3972  3974  3975     9 
 3969  3972  3989  3990     9 
 3969  3972  3989  3991     9 
 3969  3972  3989  3994     9 
 3973  3972  3989  3990     9 
 3973  3972  3989  3991     9 
 3973  3972  3989  3994     9 
 3974  3972  3989  3990     9 
 3974  3972  3989  3991     9 
 3974  3972  3989  3994     9 
 3972  3974  3975  3976     9 
 3972  3974  3975  3977     9 
 3972  3974  3975  3991     9 
 3974  3975  3977  3978     9 
 3974  3975  3977  3987     9 
 3976  3975  3977  3978     9 
 3976  3975  3977  3987     9 
 3991  3975  3977  3978     9 
 3991  3975  3977  3987     9 
 3974  3975  3991  3989     9 
 3974  3975  3991  3992     9 
 3974  3975  3991  3993     9 
 3976  3975  3991  3989     9 
 3976  3975  3991  3992     9 
 3976  3975  3991  3993     9 
 3977  3975  3991  3989     9 
 3977  3975  3991  3992     9 
 3977  3975  3991  3993     9 
 3975  3977  3978  3979     9 
 3975  3977  3978  3980     9 
 3987  3977  3978  3979     9 
 3987  3977  3978  3980     9 
 3975  3977  3987  3986     9 
 3975  3977  3987  3988     9 
 3978  3977  3987  3986     9 
 3978  3977  3987  3988     9 
 3977  3978  3980  3981     9 
 3977  3978  3980  3982     9 
 3979  3978  3980  3981     9 
 3979  3978  3980  3982     9 
 3978  3980  3982  3983     9 
 3978  3980  3982  3986     9 
 3981  3980  3982  3983     9 
 3981  3980  3982  3986     9 
 3980  3982  3983  3984     9 
 3980  3982  3983  3985     9 
 3986  3982  3983  3984     9 
 3986  3982  3983  3985     9 
 3980  3982  3986  3987     9 
 3983  3982  3986  3987     9 
 3982  3986  3987  3977     9 
 3982  3986  3987  3988     9 
 3972  3989  3991  3975     9 
 3972  3989  3991  3992     9 
 3972  3989  3991  3993     9 
 3990  3989  3991  3975     9 
 3990  3989  3991  3992     9 
 3990  3989  3991  3993     9 
 3994  3989  3991  3975     9 
 3994  3989  3991  3992     9 
 3994  3989  3991  3993     9 
 3972  3989  3994  3995     9 
 3990  3989  3994  3995     9 
 3991  3989  3994  3995     9 
 3989  3994  3995  3996     9 
 3989  3994  3995  3997     9 
 3989  3994  3995  3998     9 
 3994  3995  3998  3999     9 
 3996  3995  3998  3999     9 
 3997  3995  3998  3999     9 
 3995  3998  3999  4000     9 
 3995  3998  3999  4001     9 
 3995  3998  3999  4002     9 
 3998  3999  4002  4003     9 
 3998  3999  4002  4004     9 
 3998  3999  4002  4019     9 
 4000  3999  4002  4003     9 
 4000  3999  4002  4004     9 
 4000  3999  4002  4019     9 
 4001  3999  4002  4003     9 
 4001  3999  4002  4004     9 
 4001  3999  4002  4019     9 
 3999  4002  4004  4005     9 
 4003  4002  4004  4005     9 
 4019  4002  4004  4005     9 
 3999  4002  4019  4020     9 
 3999  4002  4019  4021     9 
 3999  4002  4019  4024     9 
 4003  4002  4019  4020     9 
 4003  4002  4019  4021     9 
 4003  4002  4019  4024     9 
 4004  4002  4019  4020     9 
 4004  4002  4019  4021     9 
 4004  4002  4019  4024     9 
 4002  4004  4005  4006     9 
 4002  4004  4005  4007     9 
 4002  4004  4005  4021     9 
 4004  4005  4007  4008     9 
 4004  4005  4007  4017     9 
 4006  4005  4007  4008     9 
 4006  4005  4007  4017     9 
 4021  4005  4007  4008     9 
 4021  4005  4007  4017     9 
 4004  4005  4021  4019     9 
 4004  4005  4021  4022     9 
 4004  4005  4021  4023     9 
 4006  4005  4021  4019     9 
 4006  4005  4021  4022     9 
 4006  4005  4021  4023     9 
 4007  4005  4021  4019     9 
 4007  4005  4021  4022     9 
 4007  4005  4021  4023     9 
 4005  4007  4008  4009     9 
 4005  4007  4008  4010     9 
 4017  4007  4008  4009     9 
 4017  4007  4008  4010     9 
 4005  4007  4017  4016     9 
 4005  4007  4017  4018     9 
 4008  4007  4017  4016     9 
 4008  4007  4017  4018     9 
 4007  4008  4010  4011     9 
 4007  4008  4010  4012     9 
 4009  4008  4010  4011     9 
 4009  4008  4010  4012     9 
 4008  4010  4012  4013     9 
 4008  4010  4012  4016     9 
 4011  4010  4012  4013     9 
 4011  4010  4012  4016     9 
 4010  4012  4013  4014     9 
 4010  4012  4013  4015     9 
 4016  4012  4013  4014     9 
 4016  4012  4013  4015     9 
 4010  4012  4016  4017     9 
 4013  4012  4016  4017     9 
 4012  4016  4017  4007     9 
 4012  4016  4017  4018     9 
 4002  4019  4021  4005     9 
 4002  4019  4021  4022     9 
 4002  4019  4021  4023     9 
 4020  4019  4021  4005     9 
 4020  4019  4021  4022     9 
 4020  4019  4021  4023     9 
 4024  4019  4021  4005     9 
 4024  4019  4021  4022     9 
 4024  4019  4021  4023     9 
 4002  4019  4024  4025     9 
 4020  4019  4024  4025     9 
 4021  4019  4024  4025     9 
 4019  4024  4025  4026     9 
 4019  4024  4025  4027     9 
 4019  4024  4025  4028     9 
 4024  4025  4028  4029     9 
 4026  4025  4028  4029     9 
 4027  4025  4028  4029     9 
 4025  4028  4029  4030     9 
 4025  4028  4029  4031     9 
 4025  4028  4029  4032     9 
 4028  4029  4032  4033     9 
 4028  4029  4032  4034     9 
 4028  4029  4032  4049     9 
 4030  4029  4032  4033     9 
 4030  4029  4032  4034     9 
 4030  4029  4032  4049     9 
 4031  4029  4032  4033     9 
 4031  4029  4032  4034     9 
 4031  4029  4032  4049     9 
 4029  4032  4034  4035     9 
 4033  4032  4034  4035     9 
 4049  4032  4034  4035     9 
 4029  4032  4049  4050     9 
 4029  4032  4049  4051     9 
 4029  4032  4049  4054     9 
 4033  4032  4049  4050     9 
 4033  4032  4049  4051     9 
 4033  4032  4049  4054     9 
 4034  4032  4049  4050     9 
 4034  4032  4049  4051     9 
 4034  4032  4049  4054     9 
 4032  4034  4035  4036     9 
 4032  4034  4035  4037     9 
 4032  4034  4035  4051     9 
 4034  4035  4037  4038     9 
 4034  4035  4037  4047     9 
 4036  4035  4037  4038     9 
 4036  4035  4037  4047     9 
 4051  4035  4037  4038     9 
 4051  4035  4037  4047     9 
 4034  4035  4051  4049     9 
 4034  4035  4051  4052     9 
 4034  4035  4051  4053     9 
 4036  4035  4051  4049     9 
 4036  4035  4051  4052     9 
 4036  4035  4051  4053     9 
 4037  4035  4051  4049     9 
 4037  4035  4051  4052     9 
 4037  4035  4051  4053     9 
 4035  4037  4038  4039     9 
 4035  4037  4038  4040     9 
 4047  4037  4038  4039     9 
 4047  4037  4038  4040     9 
 4035  4037  4047  4046     9 
 4035  4037  4047  4048     9 
 4038  4037  4047  4046     9 
 4038  4037  4047  4048     9 
 4037  4038  4040  4041     9 
 4037  4038  4040  4042     9 
 4039  4038  4040  4041     9 
 4039  4038  4040  4042     9 
 4038  4040  4042  4043     9 
 4038  4040  4042  4046     9 
 4041  4040  4042  4043     9 
 4041  4040  4042  4046     9 
 4040  4042  4043  4044     9 
 4040  4042  4043  4045     9 
 4046  4042  4043  4044     9 
 4046  4042  4043  4045     9 
 4040  4042  4046  4047     9 
 4043  4042  4046  4047     9 
 4042  4046  4047  4037     9 
 4042  4046  4047  4048     9 
 4032  4049  4051  4035     9 
 4032  4049  4051  4052     9 
 4032  4049  4051  4053     9 
 4050  4049  4051  4035     9 
 4050  4049  4051  4052     9 
 4050  4049  4051  4053     9 
 4054  4049  4051  4035     9 
 4054  4049  4051  4052     9 
 4054  4049  4051  4053     9 
 4032  4049  4054  4055     9 
 4050  4049  4054  4055     9 
 4051  4049  4054  4055     9 
 4049  4054  4055  4056     9 
 4049  4054  4055  4057     9 
 4049  4054  4055  4058     9 
 4054  4055  4058  4059     9 
 4056  4055  4058  4059     9 
 4057  4055  4058  4059     9 
 4055  4058  4059  4060     9 
 4055  4058  4059  4061     9 
 4055  4058  4059  4062     9 
 4058  4059  4062  4063     9 
 4058  4059  4062  4064     9 
 4058  4059  4062  4081     9 
 4060  4059  4062  4063     9 
 4060  4059  4062  4064     9 
 4060  4059  4062  4081     9 
 4061  4059  4062  4063     9 
 4061  4059  4062  4064     9 
 4061  4059  4062  4081     9 
 4059  4062  4064  4065     9 
 4063  4062  4064  4065     9 
 4081  4062  4064  4065     9 
 4059  4062  4081  4082     9 
 4059  4062  4081  4083     9 
 4059  4062  4081  4086     9 
 4063  4062  4081  4082     9 
 4063  4062  4081  4083     9 
 4063  4062  4081  4086     9 
 4064  4062  4081  4082     9 
 4064  4062  4081  4083     9 
 4064  4062  4081  4086     9 
 4062  4064  4065  4066     9 
 4062  4064  4065  4067     9 
 4062  4064  4065  4083     9 
 4064  4065  4067  4068     9 
 4064  4065  4067  4079     9 
 4066  4065  4067  4068     9 
 4066  4065  4067  4079     9 
 4083  4065  4067  4068     9 
 4083  4065  4067  4079     9 
 4064  4065  4083  4081     9 
 4064  4065  4083  4084     9 
 4064  4065  4083  4085     9 
 4066  4065  4083  4081     9 
 4066  4065  4083  4084     9 
 4066  4065  4083  4085     9 
 4067  4065  4083  4081     9 
 4067  4065  4083  4084     9 
 4067  4065  4083  4085     9 
 4065  4067  4068  4069     9 
 4065  4067  4068  4070     9 
 4079  4067  4068  4069     9 
 4079  4067  4068  4070     9 
 4065  4067  4079  4077     9 
 4065  4067  4079  4080     9 
 4068  4067  4079  4077     9 
 4068  4067  4079  4080     9 
 4067  4068  4070  4071     9 
 4067  4068  4070  4075     9 
 4069  4068  4070  4071     9 
 4069  4068  4070  4075     9 
 4068  4070  4071  4072     9 
 4068  4070  4071  4073     9 
 4068  4070  4071  4074     9 
 4075  4070  4071  4072     9 
 4075  4070  4071  4073     9 
 4075  4070  4071  4074     9 
 4068  4070  4075  4076     9 
 4068  4070  4075  4077     9 
 4071  4070  4075  4076     9 
 4071  4070  4075  4077     9 
 4070  4075  4077  4078     9 
 4070  4075  4077  4079     9 
 4076  4075  4077  4078     9 
 4076  4075  4077  4079     9 
 4075  4077  4079  4067     9 
 4075  4077  4079  4080     9 
 4078  4077  4079  4067     9 
 4078  4077  4079  4080     9 
 4062  4081  4083  4065     9 
 4062  4081  4083  4084     9 
 4062  4081  4083  4085     9 
 4082  4081  4083  4065     9 
 4082  4081  4083  4084     9 
 4082  4081  4083  4085     9 
 4086  4081  4083  4065     9 
 4086  4081  4083  4084     9 
 4086  4081  4083  4085     9 
 4062  4081  4086  4087     9 
 4082  4081  4086  4087     9 
 4083  4081  4086  4087     9 
 4081  4086  4087  4088     9 
 4081  4086  4087  4089     9 
 4081  4086  4087  4090     9 
 4086  4087  4090  4091     9 
 4088  4087  4090  4091     9 
 4089  4087  4090  4091     9 
 4087  4090  4091  4092     9 
 4087  4090  4091  4093     9 
 4087  4090  4091  4094     9 
 4090  4091  4094  4095     9 
 4090  4091  4094  4096     9 
 4090  4091  4094  4114     9 
 4092  4091  4094  4095     9 
 4092  4091  4094  4096     9 
 4092  4091  4094  4114     9 
 4093  4091  4094  4095     9 
 4093  4091  4094  4096     9 
 4093  4091  4094  4114     9 
 4091  4094  4096  4097     9 
 4095  4094  4096  4097     9 
 4114  4094  4096  4097     9 
 4091  4094  4114  4115     9 
 4091  4094  4114  4116     9 
 4091  4094  4114  4119     9 
 4095  4094  4114  4115     9 
 4095  4094  4114  4116     9 
 4095  4094  4114  4119     9 
 4096  4094  4114  4115     9 
 4096  4094  4114  4116     9 
 4096  4094  4114  4119     9 
 4094  4096  4097  4098     9 
 4094  4096  4097  4099     9 
 4094  4096  4097  4116     9 
 4096  4097  4099  4100     9 
 4096  4097  4099  4113     9 
 4098  4097  4099  4100     9 
 4098  4097  4099  4113     9 
 4116  4097  4099  4100     9 
 4116  4097  4099  4113     9 
 4096  4097  4116  4114     9 
 4096  4097  4116  4117     9 
 4096  4097  4116  4118     9 
 4098  4097  4116  4114     9 
 4098  4097  4116  4117     9 
 4098  4097  4116  4118     9 
 4099  4097  4116  4114     9 
 4099  4097  4116  4117     9 
 4099  4097  4116  4118     9 
 4097  4099  4100  4101     9 
 4097  4099  4100  4102     9 
 4113  4099  4100  4101     9 
 4113  4099  4100  4102     9 
 4097  4099  4113  4103     9 
 4097  4099  4113  4112     9 
 4100  4099  4113  4103     9 
 4100  4099  4113  4112     9 
 4099  4100  4102  4103     9 
 4101  4100  4102  4103     9 
 4100  4102  4103  4104     9 
 4100  4102  4103  4113     9 
 4102  4103  4104  4105     9 
 4102  4103  4104  4106     9 
 4113  4103  4104  4105     9 
 4113  4103  4104  4106     9 
 4102  4103  4113  4099     9 
 4102  4103  4113  4112     9 
 4104  4103  4113  4099     9 
 4104  4103  4113  4112     9 
 4103  4104  4106  4107     9 
 4103  4104  4106  4108     9 
 4105  4104  4106  4107     9 
 4105  4104  4106  4108     9 
 4104  4106  4108  4109     9 
 4104  4106  4108  4112     9 
 4107  4106  4108  4109     9 
 4107  4106  4108  4112     9 
 4106  4108  4109  4110     9 
 4106  4108  4109  4111     9 
 4112  4108  4109  4110     9 
 4112  4108  4109  4111     9 
 4106  4108  4112  4113     9 
 4109  4108  4112  4113     9 
 4108  4112  4113  4099     9 
 4108  4112  4113  4103     9 
 4094  4114  4116  4097     9 
 4094  4114  4116  4117     9 
 4094  4114  4116  4118     9 
 4115  4114  4116  4097     9 
 4115  4114  4116  4117     9 
 4115  4114  4116  4118     9 
 4119  4114  4116  4097     9 
 4119  4114  4116  4117     9 
 4119  4114  4116  4118     9 
 4094  4114  4119  4120     9 
 4115  4114  4119  4120     9 
 4116  4114  4119  4120     9 
 4114  4119  4120  4121     9 
 4114  4119  4120  4122     9 
 4114  4119  4120  4123     9 
 4119  4120  4123  4124     9 
 4121  4120  4123  4124     9 
 4122  4120  4123  4124     9 
 4120  4123  4124  4125     9 
 4120  4123  4124  4126     9 
 4120  4123  4124  4127     9 
 4123  4124  4127  4128     9 
 4123  4124  4127  4129     9 
 4123  4124  4127  4144     9 
 4125  4124  4127  4128     9 
 4125  4124  4127  4129     9 
 4125  4124  4127  4144     9 
 4126  4124  4127  4128     9 
 4126  4124  4127  4129     9 
 4126  4124  4127  4144     9 
 4124  4127  4129  4130     9 
 4128  4127  4129  4130     9 
 4144  4127  4129  4130     9 
 4124  4127  4144  4145     9 
 4124  4127  4144  4146     9 
 4124  4127  4144  4149     9 
 4128  4127  4144  4145     9 
 4128  4127  4144  4146     9 
 4128  4127  4144  4149     9 
 4129  4127  4144  4145     9 
 4129  4127  4144  4146     9 
 4129  4127  4144  4149     9 
 4127  4129  4130  4131     9 
 4127  4129  4130  4132     9 
 4127  4129  4130  4146     9 
 4129  4130  4132  4133     9 
 4129  4130  4132  4142     9 
 4131  4130  4132  4133     9 
 4131  4130  4132  4142     9 
 4146  4130  4132  4133     9 
 4146  4130  4132  4142     9 
 4129  4130  4146  4144     9 
 4129  4130  4146  4147     9 
 4129  4130  4146  4148     9 
 4131  4130  4146  4144     9 
 4131  4130  4146  4147     9 
 4131  4130  4146  4148     9 
 4132  4130  4146  4144     9 
 4132  4130  4146  4147     9 
 4132  4130  4146  4148     9 
 4130  4132  4133  4134     9 
 4130  4132  4133  4135     9 
 4142  4132  4133  4134     9 
 4142  4132  4133  4135     9 
 4130  4132  4142  4141     9 
 4130  4132  4142  4143     9 
 4133  4132  4142  4141     9 
 4133  4132  4142  4143     9 
 4132  4133  4135  4136     9 
 4132  4133  4135  4137     9 
 4134  4133  4135  4136     9 
 4134  4133  4135  4137     9 
 4133  4135  4137  4138     9 
 4133  4135  4137  4141     9 
 4136  4135  4137  4138     9 
 4136  4135  4137  4141     9 
 4135  4137  4138  4139     9 
 4135  4137  4138  4140     9 
 4141  4137  4138  4139     9 
 4141  4137  4138  4140     9 
 4135  4137  4141  4142     9 
 4138  4137  4141  4142     9 
 4137  4141  4142  4132     9 
 4137  4141  4142  4143     9 
 4127  4144  4146  4130     9 
 4127  4144  4146  4147     9 
 4127  4144  4146  4148     9 
 4145  4144  4146  4130     9 
 4145  4144  4146  4147     9 
 4145  4144  4146  4148     9 
 4149  4144  4146  4130     9 
 4149  4144  4146  4147     9 
 4149  4144  4146  4148     9 
 4127  4144  4149  4150     9 
 4145  4144  4149  4150     9 
 4146  4144  4149  4150     9 
 4144  4149  4150  4151     9 
 4144  4149  4150  4152     9 
 4144  4149  4150  4153     9 
 4149  4150  4153  4154     9 
 4151  4150  4153  4154     9 
 4152  4150  4153  4154     9 
 4150  4153  4154  4155     9 
 4150  4153  4154  4156     9 
 4150  4153  4154  4157     9 
 4153  4154  4157  4158     9 
 4153  4154  4157  4159     9 
 4153  4154  4157  4174     9 
 4155  4154  4157  4158     9 
 4155  4154  4157  4159     9 
 4155  4154  4157  4174     9 
 4156  4154  4157  4158     9 
 4156  4154  4157  4159     9 
 4156  4154  4157  4174     9 
 4154  4157  4159  4160     9 
 4158  4157  4159  4160     9 
 4174  4157  4159  4160     9 
 4154  4157  4174  4175     9 
 4154  4157  4174  4176     9 
 4154  4157  4174  4179     9 
 4158  4157  4174  4175     9 
 4158  4157  4174  4176     9 
 4158  4157  4174  4179     9 
 4159  4157  4174  4175     9 
 4159  4157  4174  4176     9 
 4159  4157  4174  4179     9 
 4157  4159  4160  4161     9 
 4157  4159  4160  4162     9 
 4157  4159  4160  4176     9 
 4159  4160  4162  4163     9 
 4159  4160  4162  4172     9 
 4161  4160  4162  4163     9 
 4161  4160  4162  4172     9 
 4176  4160  4162  4163     9 
 4176  4160  4162  4172     9 
 4159  4160  4176  4174     9 
 4159  4160  4176  4177     9 
 4159  4160  4176  4178     9 
 4161  4160  4176  4174     9 
 4161  4160  4176  4177     9 
 4161  4160  4176  4178     9 
 4162  4160  4176  4174     9 
 4162  4160  4176  4177     9 
 4162  4160  4176  4178     9 
 4160  4162  4163  4164     9 
 4160  4162  4163  4165     9 
 4172  4162  4163  4164     9 
 4172  4162  4163  4165     9 
 4160  4162  4172  4171     9 
 4160  4162  4172  4173     9 
 4163  4162  4172  4171     9 
 4163  4162  4172  4173     9 
 4162  4163  4165  4166     9 
 4162  4163  4165  4167     9 
 4164  4163  4165  4166     9 
 4164  4163  4165  4167     9 
 4163  4165  4167  4168     9 
 4163  4165  4167  4171     9 
 4166  4165  4167  4168     9 
 4166  4165  4167  4171     9 
 4165  4167  4168  4169     9 
 4165  4167  4168  4170     9 
 4171  4167  4168  4169     9 
 4171  4167  4168  4170     9 
 4165  4167  4171  4172     9 
 4168  4167  4171  4172     9 
 4167  4171  4172  4162     9 
 4167  4171  4172  4173     9 
 4157  4174  4176  4160     9 
 4157  4174  4176  4177     9 
 4157  4174  4176  4178     9 
 4175  4174  4176  4160     9 
 4175  4174  4176  4177     9 
 4175  4174  4176  4178     9 
 4179  4174  4176  4160     9 
 4179  4174  4176  4177     9 
 4179  4174  4176  4178     9 
 4157  4174  4179  4180     9 
 4175  4174  4179  4180     9 
 4176  4174  4179  4180     9 
 4174  4179  4180  4181     9 
 4174  4179  4180  4182     9 
 4174  4179  4180  4183     9 
 4179  4180  4183  4184     9 
 4181  4180  4183  4184     9 
 4182  4180  4183  4184     9 
 4180  4183  4184  4185     9 
 4180  4183  4184  4186     9 
 4180  4183  4184  4187     9 
 4183  4184  4187  4188     9 
 4183  4184  4187  4189     9 
 4183  4184  4187  4204     9 
 4185  4184  4187  4188     9 
 4185  4184  4187  4189     9 
 4185  4184  4187  4204     9 
 4186  4184  4187  4188     9 
 4186  4184  4187  4189     9 
 4186  4184  4187  4204     9 
 4184  4187  4189  4190     9 
 4188  4187  4189  4190     9 
 4204  4187  4189  4190     9 
 4184  4187  4204  4205     9 
 4184  4187  4204  4206     9 
 4184  4187  4204  4209     9 
 4188  4187  4204  4205     9 
 4188  4187  4204  4206     9 
 4188  4187  4204  4209     9 
 4189  4187  4204  4205     9 
 4189  4187  4204  4206     9 
 4189  4187  4204  4209     9 
 4187  4189  4190  4191     9 
 4187  4189  4190  4192     9 
 4187  4189  4190  4206     9 
 4189  4190  4192  4193     9 
 4189  4190  4192  4202     9 
 4191  4190  4192  4193     9 
 4191  4190  4192  4202     9 
 4206  4190  4192  4193     9 
 4206  4190  4192  4202     9 
 4189  4190  4206  4204     9 
 4189  4190  4206  4207     9 
 4189  4190  4206  4208     9 
 4191  4190  4206  4204     9 
 4191  4190  4206  4207     9 
 4191  4190  4206  4208     9 
 4192  4190  4206  4204     9 
 4192  4190  4206  4207     9 
 4192  4190  4206  4208     9 
 4190  4192  4193  4194     9 
 4190  4192  4193  4195     9 
 4202  4192  4193  4194     9 
 4202  4192  4193  4195     9 
 4190  4192  4202  4201     9 
 4190  4192  4202  4203     9 
 4193  4192  4202  4201     9 
 4193  4192  4202  4203     9 
 4192  4193  4195  4196     9 
 4192  4193  4195  4197     9 
 4194  4193  4195  4196     9 
 4194  4193  4195  4197     9 
 4193  4195  4197  4198     9 
 4193  4195  4197  4201     9 
 4196  4195  4197  4198     9 
 4196  4195  4197  4201     9 
 4195  4197  4198  4199     9 
 4195  4197  4198  4200     9 
 4201  4197  4198  4199     9 
 4201  4197  4198  4200     9 
 4195  4197  4201  4202     9 
 4198  4197  4201  4202     9 
 4197  4201  4202  4192     9 
 4197  4201  4202  4203     9 
 4187  4204  4206  4190     9 
 4187  4204  4206  4207     9 
 4187  4204  4206  4208     9 
 4205  4204  4206  4190     9 
 4205  4204  4206  4207     9 
 4205  4204  4206  4208     9 
 4209  4204  4206  4190     9 
 4209  4204  4206  4207     9 
 4209  4204  4206  4208     9 
 4187  4204  4209  4210     9 
 4205  4204  4209  4210     9 
 4206  4204  4209  4210     9 
 4204  4209  4210  4211     9 
 4204  4209  4210  4212     9 
 4204  4209  4210  4213     9 
 4209  4210  4213  4214     9 
 4211  4210  4213  4214     9 
 4212  4210  4213  4214     9 
 4210  4213  4214  4215     9 
 4210  4213  4214  4216     9 
 4210  4213  4214  4217     9 
 4213  4214  4217  4218     9 
 4213  4214  4217  4219     9 
 4213  4214  4217  4237     9 
 4215  4214  4217  4218     9 
 4215  4214  4217  4219     9 
 4215  4214  4217  4237     9 
 4216  4214  4217  4218     9 
 4216  4214  4217  4219     9 
 4216  4214  4217  4237     9 
 4214  4217  4219  4220     9 
 4218  4217  4219  4220     9 
 4237  4217  4219  4220     9 
 4214  4217  4237  4238     9 
 4214  4217  4237  4239     9 
 4214  4217  4237  4242     9 
 4218  4217  4237  4238     9 
 4218  4217  4237  4239     9 
 4218  4217  4237  4242     9 
 4219  4217  4237  4238     9 
 4219  4217  4237  4239     9 
 4219  4217  4237  4242     9 
 4217  4219  4220  4221     9 
 4217  4219  4220  4222     9 
 4217  4219  4220  4239     9 
 4219  4220  4222  4223     9 
 4219  4220  4222  4236     9 
 4221  4220  4222  4223     9 
 4221  4220  4222  4236     9 
 4239  4220  4222  4223     9 
 4239  4220  4222  4236     9 
 4219  4220  4239  4237     9 
 4219  4220  4239  4240     9 
 4219  4220  4239  4241     9 
 4221  4220  4239  4237     9 
 4221  4220  4239  4240     9 
 4221  4220  4239  4241     9 
 4222  4220  4239  4237     9 
 4222  4220  4239  4240     9 
 4222  4220  4239  4241     9 
 4220  4222  4223  4224     9 
 4220  4222  4223  4225     9 
 4236  4222  4223  4224     9 
 4236  4222  4223  4225     9 
 4220  4222  4236  4226     9 
 4220  4222  4236  4235     9 
 4223  4222  4236  4226     9 
 4223  4222  4236  4235     9 
 4222  4223  4225  4226     9 
 4224  4223  4225  4226     9 
 4223  4225  4226  4227     9 
 4223  4225  4226  4236     9 
 4225  4226  4227  4228     9 
 4225  4226  4227  4229     9 
 4236  4226  4227  4228     9 
 4236  4226  4227  4229     9 
 4225  4226  4236  4222     9 
 4225  4226  4236  4235     9 
 4227  4226  4236  4222     9 
 4227  4226  4236  4235     9 
 4226  4227  4229  4230     9 
 4226  4227  4229  4231     9 
 4228  4227  4229  4230     9 
 4228  4227  4229  4231     9 
 4227  4229  4231  4232     9 
 4227  4229  4231  4235     9 
 4230  4229  4231  4232     9 
 4230  4229  4231  4235     9 
 4229  4231  4232  4233     9 
 4229  4231  4232  4234     9 
 4235  4231  4232  4233     9 
 4235  4231  4232  4234     9 
 4229  4231  4235  4236     9 
 4232  4231  4235  4236     9 
 4231  4235  4236  4222     9 
 4231  4235  4236  4226     9 
 4217  4237  4239  4220     9 
 4217  4237  4239  4240     9 
 4217  4237  4239  4241     9 
 4238  4237  4239  4220     9 
 4238  4237  4239  4240     9 
 4238  4237  4239  4241     9 
 4242  4237  4239  4220     9 
 4242  4237  4239  4240     9 
 4242  4237  4239  4241     9 
 4217  4237  4242  4243     9 
 4238  4237  4242  4243     9 
 4239  4237  4242  4243     9 
 4237  4242  4243  4244     9 
 4237  4242  4243  4245     9 
 4237  4242  4243  4246     9 
 4242  4243  4246  4247     9 
 4244  4243  4246  4247     9 
 4245  4243  4246  4247     9 
 4243  4246  4247  4248     9 
 4243  4246  4247  4249     9 
 4243  4246  4247  4250     9 
 4246  4247  4250  4251     9 
 4246  4247  4250  4252     9 
 4246  4247  4250  4270     9 
 4248  4247  4250  4251     9 
 4248  4247  4250  4252     9 
 4248  4247  4250  4270     9 
 4249  4247  4250  4251     9 
 4249  4247  4250  4252     9 
 4249  4247  4250  4270     9 
 4247  4250  4252  4253     9 
 4251  4250  4252  4253     9 
 4270  4250  4252  4253     9 
 4247  4250  4270  4271     9 
 4247  4250  4270  4272     9 
 4247  4250  4270  4275     9 
 4251  4250  4270  4271     9 
 4251  4250  4270  4272     9 
 4251  4250  4270  4275     9 
 4252  4250  4270  4271     9 
 4252  4250  4270  4272     9 
 4252  4250  4270  4275     9 
 4250  4252  4253  4254     9 
 4250  4252  4253  4255     9 
 4250  4252  4253  4272     9 
 4252  4253  4255  4256     9 
 4252  4253  4255  4269     9 
 4254  4253  4255  4256     9 
 4254  4253  4255  4269     9 
 4272  4253  4255  4256     9 
 4272  4253  4255  4269     9 
 4252  4253  4272  4270     9 
 4252  4253  4272  4273     9 
 4252  4253  4272  4274     9 
 4254  4253  4272  4270     9 
 4254  4253  4272  4273     9 
 4254  4253  4272  4274     9 
 4255  4253  4272  4270     9 
 4255  4253  4272  4273     9 
 4255  4253  4272  4274     9 
 4253  4255  4256  4257     9 
 4253  4255  4256  4258     9 
 4269  4255  4256  4257     9 
 4269  4255  4256  4258     9 
 4253  4255  4269  4259     9 
 4253  4255  4269  4268     9 
 4256  4255  4269  4259     9 
 4256  4255  4269  4268     9 
 4255  4256  4258  4259     9 
 4257  4256  4258  4259     9 
 4256  4258  4259  4260     9 
 4256  4258  4259  4269     9 
 4258  4259  4260  4261     9 
 4258  4259  4260  4262     9 
 4269  4259  4260  4261     9 
 4269  4259  4260  4262     9 
 4258  4259  4269  4255     9 
 4258  4259  4269  4268     9 
 4260  4259  4269  4255     9 
 4260  4259  4269  4268     9 
 4259  4260  4262  4263     9 
 4259  4260  4262  4264     9 
 4261  4260  4262  4263     9 
 4261  4260  4262  4264     9 
 4260  4262  4264  4265     9 
 4260  4262  4264  4268     9 
 4263  4262  4264  4265     9 
 4263  4262  4264  4268     9 
 4262  4264  4265  4266     9 
 4262  4264  4265  4267     9 
 4268  4264  4265  4266     9 
 4268  4264  4265  4267     9 
 4262  4264  4268  4269     9 
 4265  4264  4268  4269     9 
 4264  4268  4269  4255     9 
 4264  4268  4269  4259     9 
 4250  4270  4272  4253     9 
 4250  4270  4272  4273     9 
 4250  4270  4272  4274     9 
 4271  4270  4272  4253     9 
 4271  4270  4272  4273     9 
 4271  4270  4272  4274     9 
 4275  4270  4272  4253     9 
 4275  4270  4272  4273     9 
 4275  4270  4272  4274     9 
 4250  4270  4275  4276     9 
 4271  4270  4275  4276     9 
 4272  4270  4275  4276     9 
 4270  4275  4276  4277     9 
 4270  4275  4276  4278     9 
 4270  4275  4276  4279     9 
 4275  4276  4279  4280     9 
 4277  4276  4279  4280     9 
 4278  4276  4279  4280     9 
 4276  4279  4280  4281     9 
 4276  4279  4280  4282     9 
 4276  4279  4280  4283     9 
 4279  4280  4283  4284     9 
 4279  4280  4283  4285     9 
 4279  4280  4283  4303     9 
 4281  4280  4283  4284     9 
 4281  4280  4283  4285     9 
 4281  4280  4283  4303     9 
 4282  4280  4283  4284     9 
 4282  4280  4283  4285     9 
 4282  4280  4283  4303     9 
 4280  4283  4285  4286     9 
 4284  4283  4285  4286     9 
 4303  4283  4285  4286     9 
 4280  4283  4303  4304     9 
 4280  4283  4303  4305     9 
 4280  4283  4303  4308     9 
 4284  4283  4303  4304     9 
 4284  4283  4303  4305     9 
 4284  4283  4303  4308     9 
 4285  4283  4303  4304     9 
 4285  4283  4303  4305     9 
 4285  4283  4303  4308     9 
 4283  4285  4286  4287     9 
 4283  4285  4286  4288     9 
 4283  4285  4286  4305     9 
 4285  4286  4288  4289     9 
 4285  4286  4288  4302     9 
 4287  4286  4288  4289     9 
 4287  4286  4288  4302     9 
 4305  4286  4288  4289     9 
 4305  4286  4288  4302     9 
 4285  4286  4305  4303     9 
 4285  4286  4305  4306     9 
 4285  4286  4305  4307     9 
 4287  4286  4305  4303     9 
 4287  4286  4305  4306     9 
 4287  4286  4305  4307     9 
 4288  4286  4305  4303     9 
 4288  4286  4305  4306     9 
 4288  4286  4305  4307     9 
 4286  4288  4289  4290     9 
 4286  4288  4289  4291     9 
 4302  4288  4289  4290     9 
 4302  4288  4289  4291     9 
 4286  4288  4302  4292     9 
 4286  4288  4302  4301     9 
 4289  4288  4302  4292     9 
 4289  4288  4302  4301     9 
 4288  4289  4291  4292     9 
 4290  4289  4291  4292     9 
 4289  4291  4292  4293     9 
 4289  4291  4292  4302     9 
 4291  4292  4293  4294     9 
 4291  4292  4293  4295     9 
 4302  4292  4293  4294     9 
 4302  4292  4293  4295     9 
 4291  4292  4302  4288     9 
 4291  4292  4302  4301     9 
 4293  4292  4302  4288     9 
 4293  4292  4302  4301     9 
 4292  4293  4295  4296     9 
 4292  4293  4295  4297     9 
 4294  4293  4295  4296     9 
 4294  4293  4295  4297     9 
 4293  4295  4297  4298     9 
 4293  4295  4297  4301     9 
 4296  4295  4297  4298     9 
 4296  4295  4297  4301     9 
 4295  4297  4298  4299     9 
 4295  4297  4298  4300     9 
 4301  4297  4298  4299     9 
 4301  4297  4298  4300     9 
 4295  4297  4301  4302     9 
 4298  4297  4301  4302     9 
 4297  4301  4302  4288     9 
 4297  4301  4302  4292     9 
 4283  4303  4305  4286     9 
 4283  4303  4305  4306     9 
 4283  4303  4305  4307     9 
 4304  4303  4305  4286     9 
 4304  4303  4305  4306     9 
 4304  4303  4305  4307     9 
 4308  4303  4305  4286     9 
 4308  4303  4305  4306     9 
 4308  4303  4305  4307     9 
 4283  4303  4308  4309     9 
 4304  4303  4308  4309     9 
 4305  4303  4308  4309     9 
 4303  4308  4309  4310     9 
 4303  4308  4309  4311     9 
 4303  4308  4309  4312     9 
 4308  4309  4312  4313     9 
 4310  4309  4312  4313     9 
 4311  4309  4312  4313     9 
 4309  4312  4313  4314     9 
 4309  4312  4313  4315     9 
 4309  4312  4313  4316     9 
 4312  4313  4316  4317     9 
 4312  4313  4316  4318     9 
 4312  4313  4316  4335     9 
 4314  4313  4316  4317     9 
 4314  4313  4316  4318     9 
 4314  4313  4316  4335     9 
 4315  4313  4316  4317     9 
 4315  4313  4316  4318     9 
 4315  4313  4316  4335     9 
 4313  4316  4318  4319     9 
 4317  4316  4318  4319     9 
 4335  4316  4318  4319     9 
 4313  4316  4335  4336     9 
 4313  4316  4335  4337     9 
 4313  4316  4335  4340     9 
 4317  4316  4335  4336     9 
 4317  4316  4335  4337     9 
 4317  4316  4335  4340     9 
 4318  4316  4335  4336     9 
 4318  4316  4335  4337     9 
 4318  4316  4335  4340     9 
 4316  4318  4319  4320     9 
 4316  4318  4319  4321     9 
 4316  4318  4319  4337     9 
 4318  4319  4321  4322     9 
 4318  4319  4321  4333     9 
 4320  4319  4321  4322     9 
 4320  4319  4321  4333     9 
 4337  4319  4321  4322     9 
 4337  4319  4321  4333     9 
 4318  4319  4337  4335     9 
 4318  4319  4337  4338     9 
 4318  4319  4337  4339     9 
 4320  4319  4337  4335     9 
 4320  4319  4337  4338     9 
 4320  4319  4337  4339     9 
 4321  4319  4337  4335     9 
 4321  4319  4337  4338     9 
 4321  4319  4337  4339     9 
 4319  4321  4322  4323     9 
 4319  4321  4322  4324     9 
 4333  4321  4322  4323     9 
 4333  4321  4322  4324     9 
 4319  4321  4333  4331     9 
 4319  4321  4333  4334     9 
 4322  4321  4333  4331     9 
 4322  4321  4333  4334     9 
 4321  4322  4324  4325     9 
 4321  4322  4324  4329     9 
 4323  4322  4324  4325     9 
 4323  4322  4324  4329     9 
 4322  4324  4325  4326     9 
 4322  4324  4325  4327     9 
 4322  4324  4325  4328     9 
 4329  4324  4325  4326     9 
 4329  4324  4325  4327     9 
 4329  4324  4325  4328     9 
 4322  4324  4329  4330     9 
 4322  4324  4329  4331     9 
 4325  4324  4329  4330     9 
 4325  4324  4329  4331     9 
 4324  4329  4331  4332     9 
 4324  4329  4331  4333     9 
 4330  4329  4331  4332     9 
 4330  4329  4331  4333     9 
 4329  4331  4333  4321     9 
 4329  4331  4333  4334     9 
 4332  4331  4333  4321     9 
 4332  4331  4333  4334     9 
 4316  4335  4337  4319     9 
 4316  4335  4337  4338     9 
 4316  4335  4337  4339     9 
 4336  4335  4337  4319     9 
 4336  4335  4337  4338     9 
 4336  4335  4337  4339     9 
 4340  4335  4337  4319     9 
 4340  4335  4337  4338     9 
 4340  4335  4337  4339     9 
 4316  4335  4340  4341     9 
 4336  4335  4340  4341     9 
 4337  4335  4340  4341     9 
 4335  4340  4341  4342     9 
 4335  4340  4341  4343     9 
 4335  4340  4341  4344     9 
 4340  4341  4344  4345     9 
 4342  4341  4344  4345     9 
 4343  4341  4344  4345     9 
 4341  4344  4345  4346     9 
 4341  4344  4345  4347     9 
 4341  4344  4345  4348     9 
 4344  4345  4348  4349     9 
 4344  4345  4348  4350     9 
 4344  4345  4348  4365     9 
 4346  4345  4348  4349     9 
 4346  4345  4348  4350     9 
 4346  4345  4348  4365     9 
 4347  4345  4348  4349     9 
 4347  4345  4348  4350     9 
 4347  4345  4348  4365     9 
 4345  4348  4350  4351     9 
 4349  4348  4350  4351     9 
 4365  4348  4350  4351     9 
 4345  4348  4365  4366     9 
 4345  4348  4365  4367     9 
 4345  4348  4365  4370     9 
 4349  4348  4365  4366     9 
 4349  4348  4365  4367     9 
 4349  4348  4365  4370     9 
 4350  4348  4365  4366     9 
 4350  4348  4365  4367     9 
 4350  4348  4365  4370     9 
 4348  4350  4351  4352     9 
 4348  4350  4351  4353     9 
 4348  4350  4351  4367     9 
 4350  4351  4353  4354     9 
 4350  4351  4353  4363     9 
 4352  4351  4353  4354     9 
 4352  4351  4353  4363     9 
 4367  4351  4353  4354     9 
 4367  4351  4353  4363     9 
 4350  4351  4367  4365     9 
 4350  4351  4367  4368     9 
 4350  4351  4367  4369     9 
 4352  4351  4367  4365     9 
 4352  4351  4367  4368     9 
 4352  4351  4367  4369     9 
 4353  4351  4367  4365     9 
 4353  4351  4367  4368     9 
 4353  4351  4367  4369     9 
 4351  4353  4354  4355     9 
 4351  4353  4354  4356     9 
 4363  4353  4354  4355     9 
 4363  4353  4354  4356     9 
 4351  4353  4363  4362     9 
 4351  4353  4363  4364     9 
 4354  4353  4363  4362     9 
 4354  4353  4363  4364     9 
 4353  4354  4356  4357     9 
 4353  4354  4356  4358     9 
 4355  4354  4356  4357     9 
 4355  4354  4356  4358     9 
 4354  4356  4358  4359     9 
 4354  4356  4358  4362     9 
 4357  4356  4358  4359     9 
 4357  4356  4358  4362     9 
 4356  4358  4359  4360     9 
 4356  4358  4359  4361     9 
 4362  4358  4359  4360     9 
 4362  4358  4359  4361     9 
 4356  4358  4362  4363     9 
 4359  4358  4362  4363     9 
 4358  4362  4363  4353     9 
 4358  4362  4363  4364     9 
 4348  4365  4367  4351     9 
 4348  4365  4367  4368     9 
 4348  4365  4367  4369     9 
 4366  4365  4367  4351     9 
 4366  4365  4367  4368     9 
 4366  4365  4367  4369     9 
 4370  4365  4367  4351     9 
 4370  4365  4367  4368     9 
 4370  4365  4367  4369     9 
 4348  4365  4370  4371     9 
 4366  4365  4370  4371     9 
 4367  4365  4370  4371     9 
 4365  4370  4371  4372     9 
 4365  4370  4371  4373     9 
 4365  4370  4371  4374     9 
 4370  4371  4374  4375     9 
 4372  4371  4374  4375     9 
 4373  4371  4374  4375     9 
 4371  4374  4375  4376     9 
 4371  4374  4375  4377     9 
 4371  4374  4375  4378     9 
 4374  4375  4378  4379     9 
 4374  4375  4378  4380     9 
 4374  4375  4378  4395     9 
 4376  4375  4378  4379     9 
 4376  4375  4378  4380     9 
 4376  4375  4378  4395     9 
 4377  4375  4378  4379     9 
 4377  4375  4378  4380     9 
 4377  4375  4378  4395     9 
 4375  4378  4380  4381     9 
 4379  4378  4380  4381     9 
 4395  4378  4380  4381     9 
 4375  4378  4395  4396     9 
 4375  4378  4395  4397     9 
 4375  4378  4395  4400     9 
 4379  4378  4395  4396     9 
 4379  4378  4395  4397     9 
 4379  4378  4395  4400     9 
 4380  4378  4395  4396     9 
 4380  4378  4395  4397     9 
 4380  4378  4395  4400     9 
 4378  4380  4381  4382     9 
 4378  4380  4381  4383     9 
 4378  4380  4381  4397     9 
 4380  4381  4383  4384     9 
 4380  4381  4383  4393     9 
 4382  4381  4383  4384     9 
 4382  4381  4383  4393     9 
 4397  4381  4383  4384     9 
 4397  4381  4383  4393     9 
 4380  4381  4397  4395     9 
 4380  4381  4397  4398     9 
 4380  4381  4397  4399     9 
 4382  4381  4397  4395     9 
 4382  4381  4397  4398     9 
 4382  4381  4397  4399     9 
 4383  4381  4397  4395     9 
 4383  4381  4397  4398     9 
 4383  4381  4397  4399     9 
 4381  4383  4384  4385     9 
 4381  4383  4384  4386     9 
 4393  4383  4384  4385     9 
 4393  4383  4384  4386     9 
 4381  4383  4393  4392     9 
 4381  4383  4393  4394     9 
 4384  4383  4393  4392     9 
 4384  4383  4393  4394     9 
 4383  4384  4386  4387     9 
 4383  4384  4386  4388     9 
 4385  4384  4386  4387     9 
 4385  4384  4386  4388     9 
 4384  4386  4388  4389     9 
 4384  4386  4388  4392     9 
 4387  4386  4388  4389     9 
 4387  4386  4388  4392     9 
 4386  4388  4389  4390     9 
 4386  4388  4389  4391     9 
 4392  4388  4389  4390     9 
 4392  4388  4389  4391     9 
 4386  4388  4392  4393     9 
 4389  4388  4392  4393     9 
 4388  4392  4393  4383     9 
 4388  4392  4393  4394     9 
 4378  4395  4397  4381     9 
 4378  4395  4397  4398     9 
 4378  4395  4397  4399     9 
 4396  4395  4397  4381     9 
 4396  4395  4397  4398     9 
 4396  4395  4397  4399     9 
 4400  4395  4397  4381     9 
 4400  4395  4397  4398     9 
 4400  4395  4397  4399     9 
 4378  4395  4400  4401     9 
 4396  4395  4400  4401     9 
 4397  4395  4400  4401     9 
 4395  4400  4401  4402     9 
 4395  4400  4401  4403     9 
 4395  4400  4401  4404     9 
 4400  4401  4404  4405     9 
 4402  4401  4404  4405     9 
 4403  4401  4404  4405     9 
 4401  4404  4405  4406     9 
 4401  4404  4405  4407     9 
 4401  4404  4405  4408     9 
 4404  4405  4408  4409     9 
 4404  4405  4408  4410     9 
 4404  4405  4408  4425     9 
 4406  4405  4408  4409     9 
 4406  4405  4408  4410     9 
 4406  4405  4408  4425     9 
 4407  4405  4408  4409     9 
 4407  4405  4408  4410     9 
 4407  4405  4408  4425     9 
 4405  4408  4410  4411     9 
 4409  4408  4410  4411     9 
 4425  4408  4410  4411     9 
 4405  4408  4425  4426     9 
 4405  4408  4425  4427     9 
 4405  4408  4425  4430     9 
 4409  4408  4425  4426     9 
 4409  4408  4425  4427     9 
 4409  4408  4425  4430     9 
 4410  4408  4425  4426     9 
 4410  4408  4425  4427     9 
 4410  4408  4425  4430     9 
 4408  4410  4411  4412     9 
 4408  4410  4411  4413     9 
 4408  4410  4411  4427     9 
 4410  4411  4413  4414     9 
 4410  4411  4413  4423     9 
 4412  4411  4413  4414     9 
 4412  4411  4413  4423     9 
 4427  4411  4413  4414     9 
 4427  4411  4413  4423     9 
 4410  4411  4427  4425     9 
 4410  4411  4427  4428     9 
 4410  4411  4427  4429     9 
 4412  4411  4427  4425     9 
 4412  4411  4427  4428     9 
 4412  4411  4427  4429     9 
 4413  4411  4427  4425     9 
 4413  4411  4427  4428     9 
 4413  4411  4427  4429     9 
 4411  4413  4414  4415     9 
 4411  4413  4414  4416     9 
 4423  4413  4414  4415     9 
 4423  4413  4414  4416     9 
 4411  4413  4423  4422     9 
 4411  4413  4423  4424     9 
 4414  4413  4423  4422     9 
 4414  4413  4423  4424     9 
 4413  4414  4416  4417     9 
 4413  4414  4416  4418     9 
 4415  4414  4416  4417     9 
 4415  4414  4416  4418     9 
 4414  4416  4418  4419     9 
 4414  4416  4418  4422     9 
 4417  4416  4418  4419     9 
 4417  4416  4418  4422     9 
 4416  4418  4419  4420     9 
 4416  4418  4419  4421     9 
 4422  4418  4419  4420     9 
 4422  4418  4419  4421     9 
 4416  4418  4422  4423     9 
 4419  4418  4422  4423     9 
 4418  4422  4423  4413     9 
 4418  4422  4423  4424     9 
 4408  4425  4427  4411     9 
 4408  4425  4427  4428     9 
 4408  4425  4427  4429     9 
 4426  4425  4427  4411     9 
 4426  4425  4427  4428     9 
 4426  4425  4427  4429     9 
 4430  4425  4427  4411     9 
 4430  4425  4427  4428     9 
 4430  4425  4427  4429     9 
 4408  4425  4430  4431     9 
 4426  4425  4430  4431     9 
 4427  4425  4430  4431     9 
 4425  4430  4431  4432     9 
 4425  4430  4431  4433     9 
 4425  4430  4431  4434     9 
 4430  4431  4434  4435     9 
 4432  4431  4434  4435     9 
 4433  4431  4434  4435     9 
 4431  4434  4435  4436     9 
 4431  4434  4435  4437     9 
 4431  4434  4435  4438     9 
 4434  4435  4438  4439     9 
 4434  4435  4438  4440     9 
 4434  4435  4438  4458     9 
 4436  4435  4438  4439     9 
 4436  4435  4438  4440     9 
 4436  4435  4438  4458     9 
 4437  4435  4438  4439     9 
 4437  4435  4438  4440     9 
 4437  4435  4438  4458     9 
 4435  4438  4440  4441     9 
 4439  4438  4440  4441     9 
 4458  4438  4440  4441     9 
 4435  4438  4458  4459     9 
 4435  4438  4458  4460     9 
 4435  4438  4458  4463     9 
 4439  4438  4458  4459     9 
 4439  4438  4458  4460     9 
 4439  4438  4458  4463     9 
 4440  4438  4458  4459     9 
 4440  4438  4458  4460     9 
 4440  4438  4458  4463     9 
 4438  4440  4441  4442     9 
 4438  4440  4441  4443     9 
 4438  4440  4441  4460     9 
 4440  4441  4443  4444     9 
 4440  4441  4443  4457     9 
 4442  4441  4443  4444     9 
 4442  4441  4443  4457     9 
 4460  4441  4443  4444     9 
 4460  4441  4443  4457     9 
 4440  4441  4460  4458     9 
 4440  4441  4460  4461     9 
 4440  4441  4460  4462     9 
 4442  4441  4460  4458     9 
 4442  4441  4460  4461     9 
 4442  4441  4460  4462     9 
 4443  4441  4460  4458     9 
 4443  4441  4460  4461     9 
 4443  4441  4460  4462     9 
 4441  4443  4444  4445     9 
 4441  4443  4444  4446     9 
 4457  4443  4444  4445     9 
 4457  4443  4444  4446     9 
 4441  4443  4457  4447     9 
 4441  4443  4457  4456     9 
 4444  4443  4457  4447     9 
 4444  4443  4457  4456     9 
 4443  4444  4446  4447     9 
 4445  4444  4446  4447     9 
 4444  4446  4447  4448     9 
 4444  4446  4447  4457     9 
 4446  4447  4448  4449     9 
 4446  4447  4448  4450     9 
 4457  4447  4448  4449     9 
 4457  4447  4448  4450     9 
 4446  4447  4457  4443     9 
 4446  4447  4457  4456     9 
 4448  4447  4457  4443     9 
 4448  4447  4457  4456     9 
 4447  4448  4450  4451     9 
 4447  4448  4450  4452     9 
 4449  4448  4450  4451     9 
 4449  4448  4450  4452     9 
 4448  4450  4452  4453     9 
 4448  4450  4452  4456     9 
 4451  4450  4452  4453     9 
 4451  4450  4452  4456     9 
 4450  4452  4453  4454     9 
 4450  4452  4453  4455     9 
 4456  4452  4453  4454     9 
 4456  4452  4453  4455     9 
 4450  4452  4456  4457     9 
 4453  4452  4456  4457     9 
 4452  4456  4457  4443     9 
 4452  4456  4457  4447     9 
 4438  4458  4460  4441     9 
 4438  4458  4460  4461     9 
 4438  4458  4460  4462     9 
 4459  4458  4460  4441     9 
 4459  4458  4460  4461     9 
 4459  4458  4460  4462     9 
 4463  4458  4460  4441     9 
 4463  4458  4460  4461     9 
 4463  4458  4460  4462     9 
 4438  4458  4463  4464     9 
 4459  4458  4463  4464     9 
 4460  4458  4463  4464     9 
 4458  4463  4464  4465     9 
 4458  4463  4464  4466     9 
 4458  4463  4464  4467     9 
 4463  4464  4467  4468     9 
 4465  4464  4467  4468     9 
 4466  4464  4467  4468     9 
 4464  4467  4468  4469     9 
 4464  4467  4468  4470     9 
 4464  4467  4468  4471     9 
 4467  4468  4471  4472     9 
 4467  4468  4471  4473     9 
 4467  4468  4471  4490     9 
 4469  4468  4471  4472     9 
 4469  4468  4471  4473     9 
 4469  4468  4471  4490     9 
 4470  4468  4471  4472     9 
 4470  4468  4471  4473     9 
 4470  4468  4471  4490     9 
 4468  4471  4473  4474     9 
 4472  4471  4473  4474     9 
 4490  4471  4473  4474     9 
 4468  4471  4490  4491     9 
 4468  4471  4490  4492     9 
 4468  4471  4490  4495     9 
 4472  4471  4490  4491     9 
 4472  4471  4490  4492     9 
 4472  4471  4490  4495     9 
 4473  4471  4490  4491     9 
 4473  4471  4490  4492     9 
 4473  4471  4490  4495     9 
 4471  4473  4474  4475     9 
 4471  4473  4474  4476     9 
 4471  4473  4474  4492     9 
 4473  4474  4476  4477     9 
 4473  4474  4476  4489     9 
 4475  4474  4476  4477     9 
 4475  4474  4476  4489     9 
 4492  4474  4476  4477     9 
 4492  4474  4476  4489     9 
 4473  4474  4492  4490     9 
 4473  4474  4492  4493     9 
 4473  4474  4492  4494     9 
 4475  4474  4492  4490     9 
 4475  4474  4492  4493     9 
 4475  4474  4492  4494     9 
 4476  4474  4492  4490     9 
 4476  4474  4492  4493     9 
 4476  4474  4492  4494     9 
 4474  4476  4477  4478     9 
 4474  4476  4477  4479     9 
 4489  4476  4477  4478     9 
 4489  4476  4477  4479     9 
 4474  4476  4489  4480     9 
 4474  4476  4489  4488     9 
 4477  4476  4489  4480     9 
 4477  4476  4489  4488     9 
 4476  4477  4479  4480     9 
 4478  4477  4479  4480     9 
 4477  4479  4480  4481     9 
 4477  4479  4480  4489     9 
 4479  4480  4481  4482     9 
 4479  4480  4481  4485     9 
 4489  4480  4481  4482     9 
 4489  4480  4481  4485     9 
 4479  4480  4489  4476     9 
 4479  4480  4489  4488     9 
 4481  4480  4489  4476     9 
 4481  4480  4489  4488     9 
 4480  4481  4482  4483     9 
 4480  4481  4482  4484     9 
 4485  4481  4482  4483     9 
 4485  4481  4482  4484     9 
 4480  4481  4485  4486     9 
 4482  4481  4485  4486     9 
 4481  4485  4486  4487     9 
 4481  4485  4486  4488     9 
 4485  4486  4488  4489     9 
 4487  4486  4488  4489     9 
 4486  4488  4489  4476     9 
 4486  4488  4489  4480     9 
 4471  4490  4492  4474     9 
 4471  4490  4492  4493     9 
 4471  4490  4492  4494     9 
 4491  4490  4492  4474     9 
 4491  4490  4492  4493     9 
 4491  4490  4492  4494     9 
 4495  4490  4492  4474     9 
 4495  4490  4492  4493     9 
 4495  4490  4492  4494     9 
 4471  4490  4495  4496     9 
 4491  4490  4495  4496     9 
 4492  4490  4495  4496     9 
 4490  4495  4496  4497     9 
 4490  4495  4496  4498     9 
 4490  4495  4496  4499     9 
 4495  4496  4499  4500     9 
 4497  4496  4499  4500     9 
 4498  4496  4499  4500     9 
 4496  4499  4500  4501     9 
 4496  4499  4500  4502     9 
 4496  4499  4500  4503     9 
 4499  4500  4503  4504     9 
 4499  4500  4503  4505     9 
 4499  4500  4503  4520     9 
 4501  4500  4503  4504     9 
 4501  4500  4503  4505     9 
 4501  4500  4503  4520     9 
 4502  4500  4503  4504     9 
 4502  4500  4503  4505     9 
 4502  4500  4503  4520     9 
 4500  4503  4505  4506     9 
 4504  4503  4505  4506     9 
 4520  4503  4505  4506     9 
 4500  4503  4520  4521     9 
 4500  4503  4520  4522     9 
 4500  4503  4520  4525     9 
 4504  4503  4520  4521     9 
 4504  4503  4520  4522     9 
 4504  4503  4520  4525     9 
 4505  4503  4520  4521     9 
 4505  4503  4520  4522     9 
 4505  4503  4520  4525     9 
 4503  4505  4506  4507     9 
 4503  4505  4506  4508     9 
 4503  4505  4506  4522     9 
 4505  4506  4508  4509     9 
 4505  4506  4508  4518     9 
 4507  4506  4508  4509     9 
 4507  4506  4508  4518     9 
 4522  4506  4508  4509     9 
 4522  4506  4508  4518     9 
 4505  4506  4522  4520     9 
 4505  4506  4522  4523     9 
 4505  4506  4522  4524     9 
 4507  4506  4522  4520     9 
 4507  4506  4522  4523     9 
 4507  4506  4522  4524     9 
 4508  4506  4522  4520     9 
 4508  4506  4522  4523     9 
 4508  4506  4522  4524     9 
 4506  4508  4509  4510     9 
 4506  4508  4509  4511     9 
 4518  4508  4509  4510     9 
 4518  4508  4509  4511     9 
 4506  4508  4518  4517     9 
 4506  4508  4518  4519     9 
 4509  4508  4518  4517     9 
 4509  4508  4518  4519     9 
 4508  4509  4511  4512     9 
 4508  4509  4511  4513     9 
 4510  4509  4511  4512     9 
 4510  4509  4511  4513     9 
 4509  4511  4513  4514     9 
 4509  4511  4513  4517     9 
 4512  4511  4513  4514     9 
 4512  4511  4513  4517     9 
 4511  4513  4514  4515     9 
 4511  4513  4514  4516     9 
 4517  4513  4514  4515     9 
 4517  4513  4514  4516     9 
 4511  4513  4517  4518     9 
 4514  4513  4517  4518     9 
 4513  4517  4518  4508     9 
 4513  4517  4518  4519     9 
 4503  4520  4522  4506     9 
 4503  4520  4522  4523     9 
 4503  4520  4522  4524     9 
 4521  4520  4522  4506     9 
 4521  4520  4522  4523     9 
 4521  4520  4522  4524     9 
 4525  4520  4522  4506     9 
 4525  4520  4522  4523     9 
 4525  4520  4522  4524     9 
 4503  4520  4525  4526     9 
 4521  4520  4525  4526     9 
 4522  4520  4525  4526     9 
 4520  4525  4526  4527     9 
 4520  4525  4526  4528     9 
 4520  4525  4526  4529     9 
 4525  4526  4529  4530     9 
 4527  4526  4529  4530     9 
 4528  4526  4529  4530     9 
 4526  4529  4530  4531     9 
 4526  4529  4530  4532     9 
 4526  4529  4530  4533     9 
 4529  4530  4533  4534     9 
 4529  4530  4533  4535     9 
 4529  4530  4533  4550     9 
 4531  4530  4533  4534     9 
 4531  4530  4533  4535     9 
 4531  4530  4533  4550     9 
 4532  4530  4533  4534     9 
 4532  4530  4533  4535     9 
 4532  4530  4533  4550     9 
 4530  4533  4535  4536     9 
 4534  4533  4535  4536     9 
 4550  4533  4535  4536     9 
 4530  4533  4550  4551     9 
 4530  4533  4550  4552     9 
 4530  4533  4550  4555     9 
 4534  4533  4550  4551     9 
 4534  4533  4550  4552     9 
 4534  4533  4550  4555     9 
 4535  4533  4550  4551     9 
 4535  4533  4550  4552     9 
 4535  4533  4550  4555     9 
 4533  4535  4536  4537     9 
 4533  4535  4536  4538     9 
 4533  4535  4536  4552     9 
 4535  4536  4538  4539     9 
 4535  4536  4538  4548     9 
 4537  4536  4538  4539     9 
 4537  4536  4538  4548     9 
 4552  4536  4538  4539     9 
 4552  4536  4538  4548     9 
 4535  4536  4552  4550     9 
 4535  4536  4552  4553     9 
 4535  4536  4552  4554     9 
 4537  4536  4552  4550     9 
 4537  4536  4552  4553     9 
 4537  4536  4552  4554     9 
 4538  4536  4552  4550     9 
 4538  4536  4552  4553     9 
 4538  4536  4552  4554     9 
 4536  4538  4539  4540     9 
 4536  4538  4539  4541     9 
 4548  4538  4539  4540     9 
 4548  4538  4539  4541     9 
 4536  4538  4548  4547     9 
 4536  4538  4548  4549     9 
 4539  4538  4548  4547     9 
 4539  4538  4548  4549     9 
 4538  4539  4541  4542     9 
 4538  4539  4541  4543     9 
 4540  4539  4541  4542     9 
 4540  4539  4541  4543     9 
 4539  4541  4543  4544     9 
 4539  4541  4543  4547     9 
 4542  4541  4543  4544     9 
 4542  4541  4543  4547     9 
 4541  4543  4544  4545     9 
 4541  4543  4544  4546     9 
 4547  4543  4544  4545     9 
 4547  4543  4544  4546     9 
 4541  4543  4547  4548     9 
 4544  4543  4547  4548     9 
 4543  4547  4548  4538     9 
 4543  4547  4548  4549     9 
 4533  4550  4552  4536     9 
 4533  4550  4552  4553     9 
 4533  4550  4552  4554     9 
 4551  4550  4552  4536     9 
 4551  4550  4552  4553     9 
 4551  4550  4552  4554     9 
 4555  4550  4552  4536     9 
 4555  4550  4552  4553     9 
 4555  4550  4552  4554     9 
 4533  4550  4555  4556     9 
 4551  4550  4555  4556     9 
 4552  4550  4555  4556     9 
 4550  4555  4556  4557     9 
 4550  4555  4556  4558     9 
 4550  4555  4556  4559     9 
 4555  4556  4559  4560     9 
 4557  4556  4559  4560     9 
 4558  4556  4559  4560     9 
 4556  4559  4560  4561     9 
 4556  4559  4560  4562     9 
 4556  4559  4560  4563     9 
 4559  4560  4563  4564     9 
 4559  4560  4563  4565     9 
 4559  4560  4563  4580     9 
 4561  4560  4563  4564     9 
 4561  4560  4563  4565     9 
 4561  4560  4563  4580     9 
 4562  4560  4563  4564     9 
 4562  4560  4563  4565     9 
 4562  4560  4563  4580     9 
 4560  4563  4565  4566     9 
 4564  4563  4565  4566     9 
 4580  4563  4565  4566     9 
 4560  4563  4580  4581     9 
 4560  4563  4580  4582     9 
 4560  4563  4580  4585     9 
 4564  4563  4580  4581     9 
 4564  4563  4580  4582     9 
 4564  4563  4580  4585     9 
 4565  4563  4580  4581     9 
 4565  4563  4580  4582     9 
 4565  4563  4580  4585     9 
 4563  4565  4566  4567     9 
 4563  4565  4566  4568     9 
 4563  4565  4566  4582     9 
 4565  4566  4568  4569     9 
 4565  4566  4568  4578     9 
 4567  4566  4568  4569     9 
 4567  4566  4568  4578     9 
 4582  4566  4568  4569     9 
 4582  4566  4568  4578     9 
 4565  4566  4582  4580     9 
 4565  4566  4582  4583     9 
 4565  4566  4582  4584     9 
 4567  4566  4582  4580     9 
 4567  4566  4582  4583     9 
 4567  4566  4582  4584     9 
 4568  4566  4582  4580     9 
 4568  4566  4582  4583     9 
 4568  4566  4582  4584     9 
 4566  4568  4569  4570     9 
 4566  4568  4569  4571     9 
 4578  4568  4569  4570     9 
 4578  4568  4569  4571     9 
 4566  4568  4578  4577     9 
 4566  4568  4578  4579     9 
 4569  4568  4578  4577     9 
 4569  4568  4578  4579     9 
 4568  4569  4571  4572     9 
 4568  4569  4571  4573     9 
 4570  4569  4571  4572     9 
 4570  4569  4571  4573     9 
 4569  4571  4573  4574     9 
 4569  4571  4573  4577     9 
 4572  4571  4573  4574     9 
 4572  4571  4573  4577     9 
 4571  4573  4574  4575     9 
 4571  4573  4574  4576     9 
 4577  4573  4574  4575     9 
 4577  4573  4574  4576     9 
 4571  4573  4577  4578     9 
 4574  4573  4577  4578     9 
 4573  4577  4578  4568     9 
 4573  4577  4578  4579     9 
 4563  4580  4582  4566     9 
 4563  4580  4582  4583     9 
 4563  4580  4582  4584     9 
 4581  4580  4582  4566     9 
 4581  4580  4582  4583     9 
 4581  4580  4582  4584     9 
 4585  4580  4582  4566     9 
 4585  4580  4582  4583     9 
 4585  4580  4582  4584     9 
 4563  4580  4585  4586     9 
 4581  4580  4585  4586     9 
 4582  4580  4585  4586     9 
 4580  4585  4586  4587     9 
 4580  4585  4586  4588     9 
 4580  4585  4586  4589     9 
 4585  4586  4589  4590     9 
 4587  4586  4589  4590     9 
 4588  4586  4589  4590     9 
 4586  4589  4590  4591     9 
 4586  4589  4590  4592     9 
 4586  4589  4590  4593     9 
 4589  4590  4593  4594     9 
 4589  4590  4593  4595     9 
 4589  4590  4593  4612     9 
 4591  4590  4593  4594     9 
 4591  4590  4593  4595     9 
 4591  4590  4593  4612     9 
 4592  4590  4593  4594     9 
 4592  4590  4593  4595     9 
 4592  4590  4593  4612     9 
 4590  4593  4595  4596     9 
 4594  4593  4595  4596     9 
 4612  4593  4595  4596     9 
 4590  4593  4612  4613     9 
 4590  4593  4612  4614     9 
 4590  4593  4612  4617     9 
 4594  4593  4612  4613     9 
 4594  4593  4612  4614     9 
 4594  4593  4612  4617     9 
 4595  4593  4612  4613     9 
 4595  4593  4612  4614     9 
 4595  4593  4612  4617     9 
 4593  4595  4596  4597     9 
 4593  4595  4596  4598     9 
 4593  4595  4596  4614     9 
 4595  4596  4598  4599     9 
 4595  4596  4598  4610     9 
 4597  4596  4598  4599     9 
 4597  4596  4598  4610     9 
 4614  4596  4598  4599     9 
 4614  4596  4598  4610     9 
 4595  4596  4614  4612     9 
 4595  4596  4614  4615     9 
 4595  4596  4614  4616     9 
 4597  4596  4614  4612     9 
 4597  4596  4614  4615     9 
 4597  4596  4614  4616     9 
 4598  4596  4614  4612     9 
 4598  4596  4614  4615     9 
 4598  4596  4614  4616     9 
 4596  4598  4599  4600     9 
 4596  4598  4599  4601     9 
 4610  4598  4599  4600     9 
 4610  4598  4599  4601     9 
 4596  4598  4610  4608     9 
 4596  4598  4610  4611     9 
 4599  4598  4610  4608     9 
 4599  4598  4610  4611     9 
 4598  4599  4601  4602     9 
 4598  4599  4601  4606     9 
 4600  4599  4601  4602     9 
 4600  4599  4601  4606     9 
 4599  4601  4602  4603     9 
 4599  4601  4602  4604     9 
 4599  4601  4602  4605     9 
 4606  4601  4602  4603     9 
 4606  4601  4602  4604     9 
 4606  4601  4602  4605     9 
 4599  4601  4606  4607     9 
 4599  4601  4606  4608     9 
 4602  4601  4606  4607     9 
 4602  4601  4606  4608     9 
 4601  4606  4608  4609     9 
 4601  4606  4608  4610     9 
 4607  4606  4608  4609     9 
 4607  4606  4608  4610     9 
 4606  4608  4610  4598     9 
 4606  4608  4610  4611     9 
 4609  4608  4610  4598     9 
 4609  4608  4610  4611     9 
 4593  4612  4614  4596     9 
 4593  4612  4614  4615     9 
 4593  4612  4614  4616     9 
 4613  4612  4614  4596     9 
 4613  4612  4614  4615     9 
 4613  4612  4614  4616     9 
 4617  4612  4614  4596     9 
 4617  4612  4614  4615     9 
 4617  4612  4614  4616     9 
 4593  4612  4617  4618     9 
 4613  4612  4617  4618     9 
 4614  4612  4617  4618     9 

[ dihedrals ]
;  ai    aj    ak    al funct            c0            c1            c2            c3
    9    11    12    21     4 
   11    14    12    13     4 
   11    20    21    22     4 
   12    16    14    15     4 
   14    17    16    20     4 
   16    18    17    19     4 
   39    41    42    51     4 
   41    44    42    43     4 
   41    50    51    52     4 
   42    46    44    45     4 
   44    47    46    50     4 
   46    48    47    49     4 
   69    71    72    81     4 
   71    74    72    73     4 
   71    80    81    82     4 
   72    76    74    75     4 
   74    77    76    80     4 
   76    78    77    79     4 
   99   101   102   115     4 
  101   104   102   103     4 
  105   108   106   107     4 
  106   110   108   109     4 
  110   112   111   113     4 
  111   108   110   114     4 
  132   134   135   148     4 
  134   137   135   136     4 
  138   141   139   140     4 
  139   143   141   142     4 
  143   145   144   146     4 
  144   141   143   147     4 
  165   167   168   177     4 
  167   170   168   169     4 
  167   176   177   178     4 
  168   172   170   171     4 
  170   173   172   176     4 
  172   174   173   175     4 
  195   197   198   207     4 
  197   200   198   199     4 
  197   206   207   208     4 
  198   202   200   201     4 
  200   203   202   206     4 
  202   204   203   205     4 
  225   227   228   237     4 
  227   230   228   229     4 
  227   236   237   238     4 
  228   232   230   231     4 
  230   233   232   236     4 
  232   234   233   235     4 
  255   257   258   267     4 
  257   260   258   259     4 
  257   266   267   268     4 
  258   262   260   261     4 
  260   263   262   266     4 
  262   264   263   265     4 
  285   287   288   297     4 
  287   290   288   289     4 
  287   296   297   298     4 
  288   292   290   291     4 
  290   293   292   296     4 
  292   294   293   295     4 
  315   317   318   331     4 
  317   320   318   319     4 
  321   324   322   323     4 
  322   326   324   325     4 
  326   328   327   329     4 
  327   324   326   330     4 
  348   350   351   360     4 
  350   353   351   352     4 
  350   359   360   361     4 
  351   355   353   354     4 
  353   356   355   359     4 
  355   357   356   358     4 
  378   380   381   390     4 
  380   383   381   382     4 
  380   389   390   391     4 
  381   385   383   384     4 
  383   386   385   389     4 
  385   387   386   388     4 
  408   410   411   423     4 
  410   413   411   412     4 
  414   416   415   419     4 
  415   417   416   418     4 
  419   422   420   421     4 
  440   442   443   454     4 
  442   445   443   444     4 
  442   452   454   455     4 
  445   452   450   451     4 
  446   445   443   450     4 
  450   454   452   453     4 
  472   474   475   486     4 
  474   477   475   476     4 
  474   484   486   487     4 
  477   484   482   483     4 
  478   477   475   482     4 
  482   486   484   485     4 
  504   506   507   518     4 
  506   509   507   508     4 
  506   516   518   519     4 
  509   516   514   515     4 
  510   509   507   514     4 
  514   518   516   517     4 
  536   538   539   548     4 
  538   541   539   540     4 
  538   547   548   549     4 
  539   543   541   542     4 
  541   544   543   547     4 
  543   545   544   546     4 
  566   568   569   582     4 
  568   571   569   570     4 
  572   575   573   574     4 
  573   577   575   576     4 
  577   579   578   580     4 
  578   575   577   581     4 
  599   601   602   615     4 
  601   604   602   603     4 
  605   608   606   607     4 
  606   610   608   609     4 
  610   612   611   613     4 
  611   608   610   614     4 
  632   634   635   647     4 
  634   637   635   636     4 
  638   640   639   643     4 
  639   641   640   642     4 
  643   646   644   645     4 
  664   666   667   676     4 
  666   669   667   668     4 
  666   675   676   677     4 
  667   671   669   670     4 
  669   672   671   675     4 
  671   673   672   674     4 
  694   696   697   708     4 
  696   699   697   698     4 
  696   706   708   709     4 
  699   706   704   705     4 
  700   699   697   704     4 
  704   708   706   707     4 
  726   728   729   742     4 
  728   731   729   730     4 
  732   735   733   734     4 
  733   737   735   736     4 
  737   739   738   740     4 
  738   735   737   741     4 
  759   761   762   775     4 
  761   764   762   763     4 
  765   768   766   767     4 
  766   770   768   769     4 
  770   772   771   773     4 
  771   768   770   774     4 
  792   794   795   808     4 
  794   797   795   796     4 
  798   801   799   800     4 
  799   803   801   802     4 
  803   805   804   806     4 
  804   801   803   807     4 
  825   827   828   840     4 
  827   830   828   829     4 
  831   833   832   836     4 
  832   834   833   835     4 
  836   839   837   838     4 
  857   859   860   873     4 
  859   862   860   861     4 
  863   866   864   865     4 
  864   868   866   867     4 
  868   870   869   871     4 
  869   866   868   872     4 
  890   892   893   902     4 
  892   895   893   894     4 
  892   901   902   903     4 
  893   897   895   896     4 
  895   898   897   901     4 
  897   899   898   900     4 
  920   922   923   936     4 
  922   925   923   924     4 
  926   929   927   928     4 
  927   931   929   930     4 
  931   933   932   934     4 
  932   929   931   935     4 
  953   955   956   968     4 
  955   958   956   957     4 
  959   961   960   964     4 
  960   962   961   963     4 
  964   967   965   966     4 
  985   987   988  1001     4 
  987   990   988   989     4 
  991   994   992   993     4 
  992   996   994   995     4 
  996   998   997   999     4 
  997   994   996  1000     4 
 1018  1020  1021  1030     4 
 1020  1023  1021  1022     4 
 1020  1029  1030  1031     4 
 1021  1025  1023  1024     4 
 1023  1026  1025  1029     4 
 1025  1027  1026  1028     4 
 1048  1050  1051  1064     4 
 1050  1053  1051  1052     4 
 1054  1057  1055  1056     4 
 1055  1059  1057  1058     4 
 1059  1061  1060  1062     4 
 1060  1057  1059  1063     4 
 1081  1083  1084  1093     4 
 1083  1086  1084  1085     4 
 1083  1092  1093  1094     4 
 1084  1088  1086  1087     4 
 1086  1089  1088  1092     4 
 1088  1090  1089  1091     4 
 1111  1113  1114  1127     4 
 1113  1116  1114  1115     4 
 1117  1120  1118  1119     4 
 1118  1122  1120  1121     4 
 1122  1124  1123  1125     4 
 1123  1120  1122  1126     4 
 1144  1146  1147  1160     4 
 1146  1149  1147  1148     4 
 1150  1153  1151  1152     4 
 1151  1155  1153  1154     4 
 1155  1157  1156  1158     4 
 1156  1153  1155  1159     4 
 1177  1179  1180  1189     4 
 1179  1182  1180  1181     4 
 1179  1188  1189  1190     4 
 1180  1184  1182  1183     4 
 1182  1185  1184  1188     4 
 1184  1186  1185  1187     4 
 1207  1209  1210  1223     4 
 1209  1212  1210  1211     4 
 1213  1216  1214  1215     4 
 1214  1218  1216  1217     4 
 1218  1220  1219  1221     4 
 1219  1216  1218  1222     4 
 1240  1242  1243  1252     4 
 1242  1245  1243  1244     4 
 1242  1251  1252  1253     4 
 1243  1247  1245  1246     4 
 1245  1248  1247  1251     4 
 1247  1249  1248  1250     4 
 1270  1272  1273  1285     4 
 1272  1275  1273  1274     4 
 1276  1278  1277  1281     4 
 1277  1279  1278  1280     4 
 1281  1284  1282  1283     4 
 1302  1304  1305  1318     4 
 1304  1307  1305  1306     4 
 1308  1311  1309  1310     4 
 1309  1313  1311  1312     4 
 1313  1315  1314  1316     4 
 1314  1311  1313  1317     4 
 1335  1337  1338  1351     4 
 1337  1340  1338  1339     4 
 1341  1344  1342  1343     4 
 1342  1346  1344  1345     4 
 1346  1348  1347  1349     4 
 1347  1344  1346  1350     4 
 1368  1370  1371  1380     4 
 1370  1373  1371  1372     4 
 1370  1379  1380  1381     4 
 1371  1375  1373  1374     4 
 1373  1376  1375  1379     4 
 1375  1377  1376  1378     4 
 1398  1400  1401  1413     4 
 1400  1403  1401  1402     4 
 1404  1406  1405  1409     4 
 1405  1407  1406  1408     4 
 1409  1412  1410  1411     4 
 1430  1432  1433  1442     4 
 1432  1435  1433  1434     4 
 1432  1441  1442  1443     4 
 1433  1437  1435  1436     4 
 1435  1438  1437  1441     4 
 1437  1439  1438  1440     4 
 1460  1462  1463  1474     4 
 1462  1465  1463  1464     4 
 1462  1472  1474  1475     4 
 1465  1472  1470  1471     4 
 1466  1465  1463  1470     4 
 1470  1474  1472  1473     4 
 1492  1494  1495  1508     4 
 1494  1497  1495  1496     4 
 1498  1501  1499  1500     4 
 1499  1503  1501  1502     4 
 1503  1505  1504  1506     4 
 1504  1501  1503  1507     4 
 1525  1527  1528  1540     4 
 1527  1530  1528  1529     4 
 1531  1533  1532  1536     4 
 1532  1534  1533  1535     4 
 1536  1539  1537  1538     4 
 1557  1559  1560  1572     4 
 1559  1562  1560  1561     4 
 1563  1565  1564  1568     4 
 1564  1566  1565  1567     4 
 1568  1571  1569  1570     4 
 1589  1591  1592  1605     4 
 1591  1594  1592  1593     4 
 1595  1598  1596  1597     4 
 1596  1600  1598  1599     4 
 1600  1602  1601  1603     4 
 1601  1598  1600  1604     4 
 1622  1624  1625  1638     4 
 1624  1627  1625  1626     4 
 1628  1631  1629  1630     4 
 1629  1633  1631  1632     4 
 1633  1635  1634  1636     4 
 1634  1631  1633  1637     4 
 1655  1657  1658  1667     4 
 1657  1660  1658  1659     4 
 1657  1666  1667  1668     4 
 1658  1662  1660  1661     4 
 1660  1663  1662  1666     4 
 1662  1664  1663  1665     4 
 1685  1687  1688  1701     4 
 1687  1690  1688  1689     4 
 1691  1694  1692  1693     4 
 1692  1696  1694  1695     4 
 1696  1698  1697  1699     4 
 1697  1694  1696  1700     4 
 1718  1720  1721  1734     4 
 1720  1723  1721  1722     4 
 1724  1727  1725  1726     4 
 1725  1729  1727  1728     4 
 1729  1731  1730  1732     4 
 1730  1727  1729  1733     4 
 1751  1753  1754  1763     4 
 1753  1756  1754  1755     4 
 1753  1762  1763  1764     4 
 1754  1758  1756  1757     4 
 1756  1759  1758  1762     4 
 1758  1760  1759  1761     4 
 1781  1783  1784  1797     4 
 1783  1786  1784  1785     4 
 1787  1790  1788  1789     4 
 1788  1792  1790  1791     4 
 1792  1794  1793  1795     4 
 1793  1790  1792  1796     4 
 1814  1816  1817  1830     4 
 1816  1819  1817  1818     4 
 1820  1823  1821  1822     4 
 1821  1825  1823  1824     4 
 1825  1827  1826  1828     4 
 1826  1823  1825  1829     4 
 1847  1849  1850  1859     4 
 1849  1852  1850  1851     4 
 1849  1858  1859  1860     4 
 1850  1854  1852  1853     4 
 1852  1855  1854  1858     4 
 1854  1856  1855  1857     4 
 1877  1879  1880  1893     4 
 1879  1882  1880  1881     4 
 1883  1886  1884  1885     4 
 1884  1888  1886  1887     4 
 1888  1890  1889  1891     4 
 1889  1886  1888  1892     4 
 1910  1912  1913  1926     4 
 1912  1915  1913  1914     4 
 1916  1919  1917  1918     4 
 1917  1921  1919  1920     4 
 1921  1923  1922  1924     4 
 1922  1919  1921  1925     4 
 1943  1945  1946  1959     4 
 1945  1948  1946  1947     4 
 1949  1952  1950  1951     4 
 1950  1954  1952  1953     4 
 1954  1956  1955  1957     4 
 1955  1952  1954  1958     4 
 1976  1978  1979  1992     4 
 1978  1981  1979  1980     4 
 1982  1985  1983  1984     4 
 1983  1987  1985  1986     4 
 1987  1989  1988  1990     4 
 1988  1985  1987  1991     4 
 2009  2011  2012  2021     4 
 2011  2014  2012  2013     4 
 2011  2020  2021  2022     4 
 2012  2016  2014  2015     4 
 2014  2017  2016  2020     4 
 2016  2018  2017  2019     4 
 2039  2041  2042  2051     4 
 2041  2044  2042  2043     4 
 2041  2050  2051  2052     4 
 2042  2046  2044  2045     4 
 2044  2047  2046  2050     4 
 2046  2048  2047  2049     4 
 2069  2071  2072  2084     4 
 2071  2074  2072  2073     4 
 2075  2077  2076  2080     4 
 2076  2078  2077  2079     4 
 2080  2083  2081  2082     4 
 2101  2103  2104  2117     4 
 2103  2106  2104  2105     4 
 2107  2110  2108  2109     4 
 2108  2112  2110  2111     4 
 2112  2114  2113  2115     4 
 2113  2110  2112  2116     4 
 2134  2136  2137  2149     4 
 2136  2139  2137  2138     4 
 2140  2142  2141  2145     4 
 2141  2143  2142  2144     4 
 2145  2148  2146  2147     4 
 2166  2168  2169  2182     4 
 2168  2171  2169  2170     4 
 2172  2175  2173  2174     4 
 2173  2177  2175  2176     4 
 2177  2179  2178  2180     4 
 2178  2175  2177  2181     4 
 2199  2201  2202  2215     4 
 2201  2204  2202  2203     4 
 2205  2208  2206  2207     4 
 2206  2210  2208  2209     4 
 2210  2212  2211  2213     4 
 2211  2208  2210  2214     4 
 2232  2234  2235  2244     4 
 2234  2237  2235  2236     4 
 2234  2243  2244  2245     4 
 2235  2239  2237  2238     4 
 2237  2240  2239  2243     4 
 2239  2241  2240  2242     4 
 2262  2264  2265  2276     4 
 2264  2267  2265  2266     4 
 2264  2274  2276  2277     4 
 2267  2274  2272  2273     4 
 2268  2267  2265  2272     4 
 2272  2276  2274  2275     4 
 2294  2296  2297  2306     4 
 2296  2299  2297  2298     4 
 2296  2305  2306  2307     4 
 2297  2301  2299  2300     4 
 2299  2302  2301  2305     4 
 2301  2303  2302  2304     4 
 2324  2326  2327  2339     4 
 2326  2329  2327  2328     4 
 2330  2332  2331  2335     4 
 2331  2333  2332  2334     4 
 2335  2338  2336  2337     4 
 2356  2358  2359  2372     4 
 2358  2361  2359  2360     4 
 2362  2365  2363  2364     4 
 2363  2367  2365  2366     4 
 2367  2369  2368  2370     4 
 2368  2365  2367  2371     4 
 2389  2391  2392  2401     4 
 2391  2394  2392  2393     4 
 2391  2400  2401  2402     4 
 2392  2396  2394  2395     4 
 2394  2397  2396  2400     4 
 2396  2398  2397  2399     4 
 2419  2421  2422  2435     4 
 2421  2424  2422  2423     4 
 2425  2428  2426  2427     4 
 2426  2430  2428  2429     4 
 2430  2432  2431  2433     4 
 2431  2428  2430  2434     4 
 2452  2454  2455  2468     4 
 2454  2457  2455  2456     4 
 2458  2461  2459  2460     4 
 2459  2463  2461  2462     4 
 2463  2465  2464  2466     4 
 2464  2461  2463  2467     4 
 2485  2487  2488  2497     4 
 2487  2490  2488  2489     4 
 2487  2496  2497  2498     4 
 2488  2492  2490  2491     4 
 2490  2493  2492  2496     4 
 2492  2494  2493  2495     4 
 2515  2517  2518  2529     4 
 2517  2520  2518  2519     4 
 2517  2527  2529  2530     4 
 2520  2527  2525  2526     4 
 2521  2520  2518  2525     4 
 2525  2529  2527  2528     4 
 2547  2549  2550  2559     4 
 2549  2552  2550  2551     4 
 2549  2558  2559  2560     4 
 2550  2554  2552  2553     4 
 2552  2555  2554  2558     4 
 2554  2556  2555  2557     4 
 2577  2579  2580  2589     4 
 2579  2582  2580  2581     4 
 2579  2588  2589  2590     4 
 2580  2584  2582  2583     4 
 2582  2585  2584  2588     4 
 2584  2586  2585  2587     4 
 2607  2609  2610  2619     4 
 2609  2612  2610  2611     4 
 2609  2618  2619  2620     4 
 2610  2614  2612  2613     4 
 2612  2615  2614  2618     4 
 2614  2616  2615  2617     4 
 2637  2639  2640  2652     4 
 2639  2642  2640  2641     4 
 2643  2645  2644  2648     4 
 2644  2646  2645  2647     4 
 2648  2651  2649  2650     4 
 2669  2671  2672  2685     4 
 2671  2674  2672  2673     4 
 2675  2678  2676  2677     4 
 2676  2680  2678  2679     4 
 2680  2682  2681  2683     4 
 2681  2678  2680  2684     4 
 2702  2704  2705  2718     4 
 2704  2707  2705  2706     4 
 2708  2711  2709  2710     4 
 2709  2713  2711  2712     4 
 2713  2715  2714  2716     4 
 2714  2711  2713  2717     4 
 2735  2737  2738  2749     4 
 2737  2740  2738  2739     4 
 2737  2747  2749  2750     4 
 2740  2747  2745  2746     4 
 2741  2740  2738  2745     4 
 2745  2749  2747  2748     4 
 2767  2769  2770  2783     4 
 2769  2772  2770  2771     4 
 2773  2776  2774  2775     4 
 2774  2778  2776  2777     4 
 2778  2780  2779  2781     4 
 2779  2776  2778  2782     4 
 2800  2802  2803  2812     4 
 2802  2805  2803  2804     4 
 2802  2811  2812  2813     4 
 2803  2807  2805  2806     4 
 2805  2808  2807  2811     4 
 2807  2809  2808  2810     4 
 2830  2832  2833  2846     4 
 2832  2835  2833  2834     4 
 2836  2839  2837  2838     4 
 2837  2841  2839  2840     4 
 2841  2843  2842  2844     4 
 2842  2839  2841  2845     4 
 2863  2865  2866  2879     4 
 2865  2868  2866  2867     4 
 2869  2872  2870  2871     4 
 2870  2874  2872  2873     4 
 2874  2876  2875  2877     4 
 2875  2872  2874  2878     4 
 2896  2898  2899  2912     4 
 2898  2901  2899  2900     4 
 2902  2905  2903  2904     4 
 2903  2907  2905  2906     4 
 2907  2909  2908  2910     4 
 2908  2905  2907  2911     4 
 2929  2931  2932  2944     4 
 2931  2934  2932  2933     4 
 2935  2937  2936  2940     4 
 2936  2938  2937  2939     4 
 2940  2943  2941  2942     4 
 2961  2963  2964  2977     4 
 2963  2966  2964  2965     4 
 2967  2970  2968  2969     4 
 2968  2972  2970  2971     4 
 2972  2974  2973  2975     4 
 2973  2970  2972  2976     4 
 2994  2996  2997  3009     4 
 2996  2999  2997  2998     4 
 3000  3002  3001  3005     4 
 3001  3003  3002  3004     4 
 3005  3008  3006  3007     4 
 3026  3028  3029  3042     4 
 3028  3031  3029  3030     4 
 3032  3035  3033  3034     4 
 3033  3037  3035  3036     4 
 3037  3039  3038  3040     4 
 3038  3035  3037  3041     4 
 3059  3061  3062  3074     4 
 3061  3064  3062  3063     4 
 3065  3067  3066  3070     4 
 3066  3068  3067  3069     4 
 3070  3073  3071  3072     4 
 3091  3093  3094  3107     4 
 3093  3096  3094  3095     4 
 3097  3100  3098  3099     4 
 3098  3102  3100  3101     4 
 3102  3104  3103  3105     4 
 3103  3100  3102  3106     4 
 3124  3126  3127  3140     4 
 3126  3129  3127  3128     4 
 3130  3133  3131  3132     4 
 3131  3135  3133  3134     4 
 3135  3137  3136  3138     4 
 3136  3133  3135  3139     4 
 3157  3159  3160  3171     4 
 3159  3162  3160  3161     4 
 3159  3169  3171  3172     4 
 3162  3169  3167  3168     4 
 3163  3162  3160  3167     4 
 3167  3171  3169  3170     4 
 3189  3191  3192  3204     4 
 3191  3194  3192  3193     4 
 3195  3197  3196  3200     4 
 3196  3198  3197  3199     4 
 3200  3203  3201  3202     4 
 3221  3223  3224  3233     4 
 3223  3226  3224  3225     4 
 3223  3232  3233  3234     4 
 3224  3228  3226  3227     4 
 3226  3229  3228  3232     4 
 3228  3230  3229  3231     4 
 3251  3253  3254  3267     4 
 3253  3256  3254  3255     4 
 3257  3260  3258  3259     4 
 3258  3262  3260  3261     4 
 3262  3264  3263  3265     4 
 3263  3260  3262  3266     4 
 3284  3286  3287  3300     4 
 3286  3289  3287  3288     4 
 3290  3293  3291  3292     4 
 3291  3295  3293  3294     4 
 3295  3297  3296  3298     4 
 3296  3293  3295  3299     4 
 3317  3319  3320  3332     4 
 3319  3322  3320  3321     4 
 3323  3325  3324  3328     4 
 3324  3326  3325  3327     4 
 3328  3331  3329  3330     4 
 3349  3351  3352  3365     4 
 3351  3354  3352  3353     4 
 3355  3358  3356  3357     4 
 3356  3360  3358  3359     4 
 3360  3362  3361  3363     4 
 3361  3358  3360  3364     4 
 3382  3384  3385  3394     4 
 3384  3387  3385  3386     4 
 3384  3393  3394  3395     4 
 3385  3389  3387  3388     4 
 3387  3390  3389  3393     4 
 3389  3391  3390  3392     4 
 3412  3414  3415  3428     4 
 3414  3417  3415  3416     4 
 3418  3421  3419  3420     4 
 3419  3423  3421  3422     4 
 3423  3425  3424  3426     4 
 3424  3421  3423  3427     4 
 3445  3447  3448  3461     4 
 3447  3450  3448  3449     4 
 3451  3454  3452  3453     4 
 3452  3456  3454  3455     4 
 3456  3458  3457  3459     4 
 3457  3454  3456  3460     4 
 3478  3480  3481  3493     4 
 3480  3483  3481  3482     4 
 3484  3486  3485  3489     4 
 3485  3487  3486  3488     4 
 3489  3492  3490  3491     4 
 3510  3512  3513  3522     4 
 3512  3515  3513  3514     4 
 3512  3521  3522  3523     4 
 3513  3517  3515  3516     4 
 3515  3518  3517  3521     4 
 3517  3519  3518  3520     4 
 3540  3542  3543  3552     4 
 3542  3545  3543  3544     4 
 3542  3551  3552  3553     4 
 3543  3547  3545  3546     4 
 3545  3548  3547  3551     4 
 3547  3549  3548  3550     4 
 3570  3572  3573  3585     4 
 3572  3575  3573  3574     4 
 3576  3578  3577  3581     4 
 3577  3579  3578  3580     4 
 3581  3584  3582  3583     4 
 3602  3604  3605  3614     4 
 3604  3607  3605  3606     4 
 3604  3613  3614  3615     4 
 3605  3609  3607  3608     4 
 3607  3610  3609  3613     4 
 3609  3611  3610  3612     4 
 3632  3634  3635  3644     4 
 3634  3637  3635  3636     4 
 3634  3643  3644  3645     4 
 3635  3639  3637  3638     4 
 3637  3640  3639  3643     4 
 3639  3641  3640  3642     4 
 3662  3664  3665  3674     4 
 3664  3667  3665  3666     4 
 3664  3673  3674  3675     4 
 3665  3669  3667  3668     4 
 3667  3670  3669  3673     4 
 3669  3671  3670  3672     4 
 3692  3694  3695  3704     4 
 3694  3697  3695  3696     4 
 3694  3703  3704  3705     4 
 3695  3699  3697  3698     4 
 3697  3700  3699  3703     4 
 3699  3701  3700  3702     4 
 3722  3724  3725  3736     4 
 3724  3727  3725  3726     4 
 3724  3734  3736  3737     4 
 3727  3734  3732  3733     4 
 3728  3727  3725  3732     4 
 3732  3736  3734  3735     4 
 3754  3756  3757  3766     4 
 3756  3759  3757  3758     4 
 3756  3765  3766  3767     4 
 3757  3761  3759  3760     4 
 3759  3762  3761  3765     4 
 3761  3763  3762  3764     4 
 3784  3786  3787  3796     4 
 3786  3789  3787  3788     4 
 3786  3795  3796  3797     4 
 3787  3791  3789  3790     4 
 3789  3792  3791  3795     4 
 3791  3793  3792  3794     4 
 3814  3816  3817  3828     4 
 3816  3819  3817  3818     4 
 3816  3826  3828  3829     4 
 3819  3826  3824  3825     4 
 3820  3819  3817  3824     4 
 3824  3828  3826  3827     4 
 3846  3848  3849  3862     4 
 3848  3851  3849  3850     4 
 3852  3855  3853  3854     4 
 3853  3857  3855  3856     4 
 3857  3859  3858  3860     4 
 3858  3855  3857  3861     4 
 3879  3881  3882  3895     4 
 3881  3884  3882  3883     4 
 3885  3888  3886  3887     4 
 3886  3890  3888  3889     4 
 3890  3892  3891  3893     4 
 3891  3888  3890  3894     4 
 3912  3914  3915  3928     4 
 3914  3917  3915  3916     4 
 3918  3921  3919  3920     4 
 3919  3923  3921  3922     4 
 3923  3925  3924  3926     4 
 3924  3921  3923  3927     4 
 3945  3947  3948  3957     4 
 3947  3950  3948  3949     4 
 3947  3956  3957  3958     4 
 3948  3952  3950  3951     4 
 3950  3953  3952  3956     4 
 3952  3954  3953  3955     4 
 3975  3977  3978  3987     4 
 3977  3980  3978  3979     4 
 3977  3986  3987  3988     4 
 3978  3982  3980  3981     4 
 3980  3983  3982  3986     4 
 3982  3984  3983  3985     4 
 4005  4007  4008  4017     4 
 4007  4010  4008  4009     4 
 4007  4016  4017  4018     4 
 4008  4012  4010  4011     4 
 4010  4013  4012  4016     4 
 4012  4014  4013  4015     4 
 4035  4037  4038  4047     4 
 4037  4040  4038  4039     4 
 4037  4046  4047  4048     4 
 4038  4042  4040  4041     4 
 4040  4043  4042  4046     4 
 4042  4044  4043  4045     4 
 4065  4067  4068  4079     4 
 4067  4070  4068  4069     4 
 4067  4077  4079  4080     4 
 4070  4077  4075  4076     4 
 4071  4070  4068  4075     4 
 4075  4079  4077  4078     4 
 4097  4099  4100  4113     4 
 4099  4102  4100  4101     4 
 4103  4106  4104  4105     4 
 4104  4108  4106  4107     4 
 4108  4110  4109  4111     4 
 4109  4106  4108  4112     4 
 4130  4132  4133  4142     4 
 4132  4135  4133  4134     4 
 4132  4141  4142  4143     4 
 4133  4137  4135  4136     4 
 4135  4138  4137  4141     4 
 4137  4139  4138  4140     4 
 4160  4162  4163  4172     4 
 4162  4165  4163  4164     4 
 4162  4171  4172  4173     4 
 4163  4167  4165  4166     4 
 4165  4168  4167  4171     4 
 4167  4169  4168  4170     4 
 4190  4192  4193  4202     4 
 4192  4195  4193  4194     4 
 4192  4201  4202  4203     4 
 4193  4197  4195  4196     4 
 4195  4198  4197  4201     4 
 4197  4199  4198  4200     4 
 4220  4222  4223  4236     4 
 4222  4225  4223  4224     4 
 4226  4229  4227  4228     4 
 4227  4231  4229  4230     4 
 4231  4233  4232  4234     4 
 4232  4229  4231  4235     4 
 4253  4255  4256  4269     4 
 4255  4258  4256  4257     4 
 4259  4262  4260  4261     4 
 4260  4264  4262  4263     4 
 4264  4266  4265  4267     4 
 4265  4262  4264  4268     4 
 4286  4288  4289  4302     4 
 4288  4291  4289  4290     4 
 4292  4295  4293  4294     4 
 4293  4297  4295  4296     4 
 4297  4299  4298  4300     4 
 4298  4295  4297  4301     4 
 4319  4321  4322  4333     4 
 4321  4324  4322  4323     4 
 4321  4331  4333  4334     4 
 4324  4331  4329  4330     4 
 4325  4324  4322  4329     4 
 4329  4333  4331  4332     4 
 4351  4353  4354  4363     4 
 4353  4356  4354  4355     4 
 4353  4362  4363  4364     4 
 4354  4358  4356  4357     4 
 4356  4359  4358  4362     4 
 4358  4360  4359  4361     4 
 4381  4383  4384  4393     4 
 4383  4386  4384  4385     4 
 4383  4392  4393  4394     4 
 4384  4388  4386  4387     4 
 4386  4389  4388  4392     4 
 4388  4390  4389  4391     4 
 4411  4413  4414  4423     4 
 4413  4416  4414  4415     4 
 4413  4422  4423  4424     4 
 4414  4418  4416  4417     4 
 4416  4419  4418  4422     4 
 4418  4420  4419  4421     4 
 4441  4443  4444  4457     4 
 4443  4446  4444  4445     4 
 4447  4450  4448  4449     4 
 4448  4452  4450  4451     4 
 4452  4454  4453  4455     4 
 4453  4450  4452  4456     4 
 4474  4476  4477  4489     4 
 4476  4479  4477  4478     4 
 4480  4482  4481  4485     4 
 4481  4483  4482  4484     4 
 4485  4488  4486  4487     4 
 4506  4508  4509  4518     4 
 4508  4511  4509  4510     4 
 4508  4517  4518  4519     4 
 4509  4513  4511  4512     4 
 4511  4514  4513  4517     4 
 4513  4515  4514  4516     4 
 4536  4538  4539  4548     4 
 4538  4541  4539  4540     4 
 4538  4547  4548  4549     4 
 4539  4543  4541  4542     4 
 4541  4544  4543  4547     4 
 4543  4545  4544  4546     4 
 4566  4568  4569  4578     4 
 4568  4571  4569  4570     4 
 4568  4577  4578  4579     4 
 4569  4573  4571  4572     4 
 4571  4574  4573  4577     4 
 4573  4575  4574  4576     4 
 4596  4598  4599  4610     4 
 4598  4601  4599  4600     4 
 4598  4608  4610  4611     4 
 4601  4608  4606  4607     4 
 4602  4601  4599  4606     4 
 4606  4610  4608  4609     4 

; Include Position restraint file
#ifdef POSRES
#include "posre_DNA_chain_A.itp"
#endif

