;
;	File 'topol_DNA_chain_B.itp' was generated
;	By user: wang (1000)
;	On host: 123
;	At date: Sat Dec 13 18:29:25 2025
;
;	This is a include topology file
;
;	Created by:
;	                    :-) GROMACS - gmx pdb2gmx, 2025.3 (-:
;	
;	Executable:   /opt/gromacs-2025.3/bin/gmx_mpi
;	Data prefix:  /opt/gromacs-2025.3
;	Working dir:  /home/wang/核小体/WT
;	Command line:
;	  gmx_mpi pdb2gmx -f H3_TAIL_CLEAN.pdb -o TAIL_processed.gro -ignh
;	Force field was read from the standard GROMACS share directory.
;

[ moleculetype ]
; Name            nrexcl
DNA_chain_B         3

[ atoms ]
;   nr       type  resnr residue  atom   cgnr     charge       mass  typeB    chargeB      massB
; residue 147 DA  rtp DA5  q -0.3
     1         OH    147     DA    O5'      1    -0.6318         13.984000
     2         HO    147     DA    H5T      2     0.4422      3.024000
     3         CJ    147     DA    C5'      3    -0.0069      7.978000
     4         H1    147     DA   H5'1      4     0.0754      3.024000
     5         H1    147     DA   H5'2      5     0.0754      3.024000
     6         CT    147     DA    C4'      6     0.1629      9.994000
     7         H1    147     DA    H4'      7     0.1176      3.024000
     8         OS    147     DA    O4'      8    -0.3691         16.000000
     9         CT    147     DA    C1'      9     0.0431      9.994000
    10         H2    147     DA    H1'     10     0.1838      3.024000
    11         N*    147     DA     N9     11    -0.0268      14.010000
    12         C2    147     DA     C8     12     0.1607      9.994000
    13         H5    147     DA     H8     13     0.1877      3.024000
    14         NB    147     DA     N7     14    -0.6175      14.010000
    15         CB    147     DA     C5     15     0.0725      12.010000
    16         CA    147     DA     C6     16     0.6897      12.010000
    17         N2    147     DA     N6     17    -0.9123      9.978000
    18          H    147     DA    H61     18     0.4167      3.024000
    19          H    147     DA    H62     19     0.4167      3.024000
    20         NC    147     DA     N1     20    -0.7624      14.010000
    21         CQ    147     DA     C2     21     0.5716      9.994000
    22         H5    147     DA     H2     22     0.0598      3.024000
    23         NC    147     DA     N3     23    -0.7417      14.010000
    24         CB    147     DA     C4     24       0.38      12.010000
    25         C7    147     DA    C3'     25     0.0713      9.994000
    26         H1    147     DA    H3'     26     0.0985      3.024000
    27         CT    147     DA    C2'     27    -0.0854      7.978000
    28         HC    147     DA   H2'1     28     0.0718      3.024000
    29         HC    147     DA   H2'2     29     0.0718      3.024000
    30         OS    147     DA    O3'     30    -0.5232         16.000000   ; qtot -0.3079
; residue 148 DG  rtp DG   q -1.0
    31          P    148     DG      P     31     1.1659      30.970000
    32         O2    148     DG    O1P     32    -0.7761         16.000000
    33         O2    148     DG    O2P     33    -0.7761         16.000000
    34         OS    148     DG    O5'     34    -0.4954         16.000000
    35         CJ    148     DG    C5'     35    -0.0069      7.978000
    36         H1    148     DG   H5'1     36     0.0754      3.024000
    37         H1    148     DG   H5'2     37     0.0754      3.024000
    38         CT    148     DG    C4'     38     0.1629      9.994000
    39         H1    148     DG    H4'     39     0.1176      3.024000
    40         OS    148     DG    O4'     40    -0.3691         16.000000
    41         CT    148     DG    C1'     41     0.0358      9.994000
    42         H2    148     DG    H1'     42     0.1746      3.024000
    43         N*    148     DG     N9     43     0.0577      14.010000
    44         CK    148     DG     C8     44     0.0736      9.994000
    45         H5    148     DG     H8     45     0.1997      3.024000
    46         NB    148     DG     N7     46    -0.5725      14.010000
    47         CB    148     DG     C5     47     0.1991      12.010000
    48          C    148     DG     C6     48     0.4918      12.010000
    49          O    148     DG     O6     49    -0.5699         16.000000
    50         NA    148     DG     N1     50    -0.5053      11.994000
    51          H    148     DG     H1     51      0.352      3.024000
    52         CA    148     DG     C2     52     0.7432      12.010000
    53         N2    148     DG     N2     53     -0.923      9.978000
    54          H    148     DG    H21     54     0.4235      3.024000
    55          H    148     DG    H22     55     0.4235      3.024000
    56         NC    148     DG     N3     56    -0.6636      14.010000
    57         CB    148     DG     C4     57     0.1814      12.010000
    58         C7    148     DG    C3'     58     0.0713      9.994000
    59         H1    148     DG    H3'     59     0.0985      3.024000
    60         CT    148     DG    C2'     60    -0.0854      7.978000
    61         HC    148     DG   H2'1     61     0.0718      3.024000
    62         HC    148     DG   H2'2     62     0.0718      3.024000
    63         OS    148     DG    O3'     63    -0.5232         16.000000   ; qtot -1.308
; residue 149 DG  rtp DG   q -1.0
    64          P    149     DG      P     64     1.1659      30.970000
    65         O2    149     DG    O1P     65    -0.7761         16.000000
    66         O2    149     DG    O2P     66    -0.7761         16.000000
    67         OS    149     DG    O5'     67    -0.4954         16.000000
    68         CJ    149     DG    C5'     68    -0.0069      7.978000
    69         H1    149     DG   H5'1     69     0.0754      3.024000
    70         H1    149     DG   H5'2     70     0.0754      3.024000
    71         CT    149     DG    C4'     71     0.1629      9.994000
    72         H1    149     DG    H4'     72     0.1176      3.024000
    73         OS    149     DG    O4'     73    -0.3691         16.000000
    74         CT    149     DG    C1'     74     0.0358      9.994000
    75         H2    149     DG    H1'     75     0.1746      3.024000
    76         N*    149     DG     N9     76     0.0577      14.010000
    77         CK    149     DG     C8     77     0.0736      9.994000
    78         H5    149     DG     H8     78     0.1997      3.024000
    79         NB    149     DG     N7     79    -0.5725      14.010000
    80         CB    149     DG     C5     80     0.1991      12.010000
    81          C    149     DG     C6     81     0.4918      12.010000
    82          O    149     DG     O6     82    -0.5699         16.000000
    83         NA    149     DG     N1     83    -0.5053      11.994000
    84          H    149     DG     H1     84      0.352      3.024000
    85         CA    149     DG     C2     85     0.7432      12.010000
    86         N2    149     DG     N2     86     -0.923      9.978000
    87          H    149     DG    H21     87     0.4235      3.024000
    88          H    149     DG    H22     88     0.4235      3.024000
    89         NC    149     DG     N3     89    -0.6636      14.010000
    90         CB    149     DG     C4     90     0.1814      12.010000
    91         C7    149     DG    C3'     91     0.0713      9.994000
    92         H1    149     DG    H3'     92     0.0985      3.024000
    93         CT    149     DG    C2'     93    -0.0854      7.978000
    94         HC    149     DG   H2'1     94     0.0718      3.024000
    95         HC    149     DG   H2'2     95     0.0718      3.024000
    96         OS    149     DG    O3'     96    -0.5232         16.000000   ; qtot -2.308
; residue 150 DG  rtp DG   q -1.0
    97          P    150     DG      P     97     1.1659      30.970000
    98         O2    150     DG    O1P     98    -0.7761         16.000000
    99         O2    150     DG    O2P     99    -0.7761         16.000000
   100         OS    150     DG    O5'    100    -0.4954         16.000000
   101         CJ    150     DG    C5'    101    -0.0069      7.978000
   102         H1    150     DG   H5'1    102     0.0754      3.024000
   103         H1    150     DG   H5'2    103     0.0754      3.024000
   104         CT    150     DG    C4'    104     0.1629      9.994000
   105         H1    150     DG    H4'    105     0.1176      3.024000
   106         OS    150     DG    O4'    106    -0.3691         16.000000
   107         CT    150     DG    C1'    107     0.0358      9.994000
   108         H2    150     DG    H1'    108     0.1746      3.024000
   109         N*    150     DG     N9    109     0.0577      14.010000
   110         CK    150     DG     C8    110     0.0736      9.994000
   111         H5    150     DG     H8    111     0.1997      3.024000
   112         NB    150     DG     N7    112    -0.5725      14.010000
   113         CB    150     DG     C5    113     0.1991      12.010000
   114          C    150     DG     C6    114     0.4918      12.010000
   115          O    150     DG     O6    115    -0.5699         16.000000
   116         NA    150     DG     N1    116    -0.5053      11.994000
   117          H    150     DG     H1    117      0.352      3.024000
   118         CA    150     DG     C2    118     0.7432      12.010000
   119         N2    150     DG     N2    119     -0.923      9.978000
   120          H    150     DG    H21    120     0.4235      3.024000
   121          H    150     DG    H22    121     0.4235      3.024000
   122         NC    150     DG     N3    122    -0.6636      14.010000
   123         CB    150     DG     C4    123     0.1814      12.010000
   124         C7    150     DG    C3'    124     0.0713      9.994000
   125         H1    150     DG    H3'    125     0.0985      3.024000
   126         CT    150     DG    C2'    126    -0.0854      7.978000
   127         HC    150     DG   H2'1    127     0.0718      3.024000
   128         HC    150     DG   H2'2    128     0.0718      3.024000
   129         OS    150     DG    O3'    129    -0.5232         16.000000   ; qtot -3.308
; residue 151 DT  rtp DT   q -1.0
   130          P    151     DT      P    130     1.1659      30.970000
   131         O2    151     DT    O1P    131    -0.7761         16.000000
   132         O2    151     DT    O2P    132    -0.7761         16.000000
   133         OS    151     DT    O5'    133    -0.4954         16.000000
   134         CJ    151     DT    C5'    134    -0.0069      7.978000
   135         H1    151     DT   H5'1    135     0.0754      3.024000
   136         H1    151     DT   H5'2    136     0.0754      3.024000
   137         CT    151     DT    C4'    137     0.1629      9.994000
   138         H1    151     DT    H4'    138     0.1176      3.024000
   139         OS    151     DT    O4'    139    -0.3691         16.000000
   140         CT    151     DT    C1'    140      0.068      9.994000
   141         H2    151     DT    H1'    141     0.1804      3.024000
   142         N*    151     DT     N1    142    -0.0239      14.010000
   143         CM    151     DT     C6    143    -0.2209      9.994000
   144         H4    151     DT     H6    144     0.2607      3.024000
   145         CM    151     DT     C5    145     0.0025      12.010000
   146         CT    151     DT     C7    146    -0.2269      5.962000
   147         HC    151     DT    H71    147      0.077      3.024000
   148         HC    151     DT    H72    148      0.077      3.024000
   149         HC    151     DT    H73    149      0.077      3.024000
   150          C    151     DT     C4    150     0.5194      12.010000
   151          O    151     DT     O4    151    -0.5563         16.000000
   152         NA    151     DT     N3    152     -0.434      11.994000
   153          H    151     DT     H3    153      0.342      3.024000
   154          C    151     DT     C2    154     0.5677      12.010000
   155          O    151     DT     O2    155    -0.5881         16.000000
   156         C7    151     DT    C3'    156     0.0713      9.994000
   157         H1    151     DT    H3'    157     0.0985      3.024000
   158         CT    151     DT    C2'    158    -0.0854      7.978000
   159         HC    151     DT   H2'1    159     0.0718      3.024000
   160         HC    151     DT   H2'2    160     0.0718      3.024000
   161         OS    151     DT    O3'    161    -0.5232         16.000000   ; qtot -4.308
; residue 152 DC  rtp DC   q -1.0
   162          P    152     DC      P    162     1.1659      30.970000
   163         O2    152     DC    O1P    163    -0.7761         16.000000
   164         O2    152     DC    O2P    164    -0.7761         16.000000
   165         OS    152     DC    O5'    165    -0.4954         16.000000
   166         CJ    152     DC    C5'    166    -0.0069      7.978000
   167         H1    152     DC   H5'1    167     0.0754      3.024000
   168         H1    152     DC   H5'2    168     0.0754      3.024000
   169         CT    152     DC    C4'    169     0.1629      9.994000
   170         H1    152     DC    H4'    170     0.1176      3.024000
   171         OS    152     DC    O4'    171    -0.3691         16.000000
   172         CT    152     DC    C1'    172    -0.0116      9.994000
   173         H2    152     DC    H1'    173     0.1963      3.024000
   174         N*    152     DC     N1    174    -0.0339      14.010000
   175         C1    152     DC     C6    175    -0.0183      9.994000
   176         H4    152     DC     H6    176     0.2293      3.024000
   177         C1    152     DC     C5    177    -0.5222      9.994000
   178         HA    152     DC     H5    178     0.1863      3.024000
   179         CA    152     DC     C4    179     0.8439      12.010000
   180         N2    152     DC     N4    180    -0.9773      9.978000
   181          H    152     DC    H41    181     0.4314      3.024000
   182          H    152     DC    H42    182     0.4314      3.024000
   183         NC    152     DC     N3    183    -0.7748      14.010000
   184          C    152     DC     C2    184     0.7959      12.010000
   185          O    152     DC     O2    185    -0.6548         16.000000
   186         C7    152     DC    C3'    186     0.0713      9.994000
   187         H1    152     DC    H3'    187     0.0985      3.024000
   188         CT    152     DC    C2'    188    -0.0854      7.978000
   189         HC    152     DC   H2'1    189     0.0718      3.024000
   190         HC    152     DC   H2'2    190     0.0718      3.024000
   191         OS    152     DC    O3'    191    -0.5232         16.000000   ; qtot -5.308
; residue 153 DG  rtp DG   q -1.0
   192          P    153     DG      P    192     1.1659      30.970000
   193         O2    153     DG    O1P    193    -0.7761         16.000000
   194         O2    153     DG    O2P    194    -0.7761         16.000000
   195         OS    153     DG    O5'    195    -0.4954         16.000000
   196         CJ    153     DG    C5'    196    -0.0069      7.978000
   197         H1    153     DG   H5'1    197     0.0754      3.024000
   198         H1    153     DG   H5'2    198     0.0754      3.024000
   199         CT    153     DG    C4'    199     0.1629      9.994000
   200         H1    153     DG    H4'    200     0.1176      3.024000
   201         OS    153     DG    O4'    201    -0.3691         16.000000
   202         CT    153     DG    C1'    202     0.0358      9.994000
   203         H2    153     DG    H1'    203     0.1746      3.024000
   204         N*    153     DG     N9    204     0.0577      14.010000
   205         CK    153     DG     C8    205     0.0736      9.994000
   206         H5    153     DG     H8    206     0.1997      3.024000
   207         NB    153     DG     N7    207    -0.5725      14.010000
   208         CB    153     DG     C5    208     0.1991      12.010000
   209          C    153     DG     C6    209     0.4918      12.010000
   210          O    153     DG     O6    210    -0.5699         16.000000
   211         NA    153     DG     N1    211    -0.5053      11.994000
   212          H    153     DG     H1    212      0.352      3.024000
   213         CA    153     DG     C2    213     0.7432      12.010000
   214         N2    153     DG     N2    214     -0.923      9.978000
   215          H    153     DG    H21    215     0.4235      3.024000
   216          H    153     DG    H22    216     0.4235      3.024000
   217         NC    153     DG     N3    217    -0.6636      14.010000
   218         CB    153     DG     C4    218     0.1814      12.010000
   219         C7    153     DG    C3'    219     0.0713      9.994000
   220         H1    153     DG    H3'    220     0.0985      3.024000
   221         CT    153     DG    C2'    221    -0.0854      7.978000
   222         HC    153     DG   H2'1    222     0.0718      3.024000
   223         HC    153     DG   H2'2    223     0.0718      3.024000
   224         OS    153     DG    O3'    224    -0.5232         16.000000   ; qtot -6.308
; residue 154 DG  rtp DG   q -1.0
   225          P    154     DG      P    225     1.1659      30.970000
   226         O2    154     DG    O1P    226    -0.7761         16.000000
   227         O2    154     DG    O2P    227    -0.7761         16.000000
   228         OS    154     DG    O5'    228    -0.4954         16.000000
   229         CJ    154     DG    C5'    229    -0.0069      7.978000
   230         H1    154     DG   H5'1    230     0.0754      3.024000
   231         H1    154     DG   H5'2    231     0.0754      3.024000
   232         CT    154     DG    C4'    232     0.1629      9.994000
   233         H1    154     DG    H4'    233     0.1176      3.024000
   234         OS    154     DG    O4'    234    -0.3691         16.000000
   235         CT    154     DG    C1'    235     0.0358      9.994000
   236         H2    154     DG    H1'    236     0.1746      3.024000
   237         N*    154     DG     N9    237     0.0577      14.010000
   238         CK    154     DG     C8    238     0.0736      9.994000
   239         H5    154     DG     H8    239     0.1997      3.024000
   240         NB    154     DG     N7    240    -0.5725      14.010000
   241         CB    154     DG     C5    241     0.1991      12.010000
   242          C    154     DG     C6    242     0.4918      12.010000
   243          O    154     DG     O6    243    -0.5699         16.000000
   244         NA    154     DG     N1    244    -0.5053      11.994000
   245          H    154     DG     H1    245      0.352      3.024000
   246         CA    154     DG     C2    246     0.7432      12.010000
   247         N2    154     DG     N2    247     -0.923      9.978000
   248          H    154     DG    H21    248     0.4235      3.024000
   249          H    154     DG    H22    249     0.4235      3.024000
   250         NC    154     DG     N3    250    -0.6636      14.010000
   251         CB    154     DG     C4    251     0.1814      12.010000
   252         C7    154     DG    C3'    252     0.0713      9.994000
   253         H1    154     DG    H3'    253     0.0985      3.024000
   254         CT    154     DG    C2'    254    -0.0854      7.978000
   255         HC    154     DG   H2'1    255     0.0718      3.024000
   256         HC    154     DG   H2'2    256     0.0718      3.024000
   257         OS    154     DG    O3'    257    -0.5232         16.000000   ; qtot -7.308
; residue 155 DG  rtp DG   q -1.0
   258          P    155     DG      P    258     1.1659      30.970000
   259         O2    155     DG    O1P    259    -0.7761         16.000000
   260         O2    155     DG    O2P    260    -0.7761         16.000000
   261         OS    155     DG    O5'    261    -0.4954         16.000000
   262         CJ    155     DG    C5'    262    -0.0069      7.978000
   263         H1    155     DG   H5'1    263     0.0754      3.024000
   264         H1    155     DG   H5'2    264     0.0754      3.024000
   265         CT    155     DG    C4'    265     0.1629      9.994000
   266         H1    155     DG    H4'    266     0.1176      3.024000
   267         OS    155     DG    O4'    267    -0.3691         16.000000
   268         CT    155     DG    C1'    268     0.0358      9.994000
   269         H2    155     DG    H1'    269     0.1746      3.024000
   270         N*    155     DG     N9    270     0.0577      14.010000
   271         CK    155     DG     C8    271     0.0736      9.994000
   272         H5    155     DG     H8    272     0.1997      3.024000
   273         NB    155     DG     N7    273    -0.5725      14.010000
   274         CB    155     DG     C5    274     0.1991      12.010000
   275          C    155     DG     C6    275     0.4918      12.010000
   276          O    155     DG     O6    276    -0.5699         16.000000
   277         NA    155     DG     N1    277    -0.5053      11.994000
   278          H    155     DG     H1    278      0.352      3.024000
   279         CA    155     DG     C2    279     0.7432      12.010000
   280         N2    155     DG     N2    280     -0.923      9.978000
   281          H    155     DG    H21    281     0.4235      3.024000
   282          H    155     DG    H22    282     0.4235      3.024000
   283         NC    155     DG     N3    283    -0.6636      14.010000
   284         CB    155     DG     C4    284     0.1814      12.010000
   285         C7    155     DG    C3'    285     0.0713      9.994000
   286         H1    155     DG    H3'    286     0.0985      3.024000
   287         CT    155     DG    C2'    287    -0.0854      7.978000
   288         HC    155     DG   H2'1    288     0.0718      3.024000
   289         HC    155     DG   H2'2    289     0.0718      3.024000
   290         OS    155     DG    O3'    290    -0.5232         16.000000   ; qtot -8.308
; residue 156 DA  rtp DA   q -1.0
   291          P    156     DA      P    291     1.1659      30.970000
   292         O2    156     DA    O1P    292    -0.7761         16.000000
   293         O2    156     DA    O2P    293    -0.7761         16.000000
   294         OS    156     DA    O5'    294    -0.4954         16.000000
   295         CJ    156     DA    C5'    295    -0.0069      7.978000
   296         H1    156     DA   H5'1    296     0.0754      3.024000
   297         H1    156     DA   H5'2    297     0.0754      3.024000
   298         CT    156     DA    C4'    298     0.1629      9.994000
   299         H1    156     DA    H4'    299     0.1176      3.024000
   300         OS    156     DA    O4'    300    -0.3691         16.000000
   301         CT    156     DA    C1'    301     0.0431      9.994000
   302         H2    156     DA    H1'    302     0.1838      3.024000
   303         N*    156     DA     N9    303    -0.0268      14.010000
   304         C2    156     DA     C8    304     0.1607      9.994000
   305         H5    156     DA     H8    305     0.1877      3.024000
   306         NB    156     DA     N7    306    -0.6175      14.010000
   307         CB    156     DA     C5    307     0.0725      12.010000
   308         CA    156     DA     C6    308     0.6897      12.010000
   309         N2    156     DA     N6    309    -0.9123      9.978000
   310          H    156     DA    H61    310     0.4167      3.024000
   311          H    156     DA    H62    311     0.4167      3.024000
   312         NC    156     DA     N1    312    -0.7624      14.010000
   313         CQ    156     DA     C2    313     0.5716      9.994000
   314         H5    156     DA     H2    314     0.0598      3.024000
   315         NC    156     DA     N3    315    -0.7417      14.010000
   316         CB    156     DA     C4    316       0.38      12.010000
   317         C7    156     DA    C3'    317     0.0713      9.994000
   318         H1    156     DA    H3'    318     0.0985      3.024000
   319         CT    156     DA    C2'    319    -0.0854      7.978000
   320         HC    156     DA   H2'1    320     0.0718      3.024000
   321         HC    156     DA   H2'2    321     0.0718      3.024000
   322         OS    156     DA    O3'    322    -0.5232         16.000000   ; qtot -9.308
; residue 157 DC  rtp DC   q -1.0
   323          P    157     DC      P    323     1.1659      30.970000
   324         O2    157     DC    O1P    324    -0.7761         16.000000
   325         O2    157     DC    O2P    325    -0.7761         16.000000
   326         OS    157     DC    O5'    326    -0.4954         16.000000
   327         CJ    157     DC    C5'    327    -0.0069      7.978000
   328         H1    157     DC   H5'1    328     0.0754      3.024000
   329         H1    157     DC   H5'2    329     0.0754      3.024000
   330         CT    157     DC    C4'    330     0.1629      9.994000
   331         H1    157     DC    H4'    331     0.1176      3.024000
   332         OS    157     DC    O4'    332    -0.3691         16.000000
   333         CT    157     DC    C1'    333    -0.0116      9.994000
   334         H2    157     DC    H1'    334     0.1963      3.024000
   335         N*    157     DC     N1    335    -0.0339      14.010000
   336         C1    157     DC     C6    336    -0.0183      9.994000
   337         H4    157     DC     H6    337     0.2293      3.024000
   338         C1    157     DC     C5    338    -0.5222      9.994000
   339         HA    157     DC     H5    339     0.1863      3.024000
   340         CA    157     DC     C4    340     0.8439      12.010000
   341         N2    157     DC     N4    341    -0.9773      9.978000
   342          H    157     DC    H41    342     0.4314      3.024000
   343          H    157     DC    H42    343     0.4314      3.024000
   344         NC    157     DC     N3    344    -0.7748      14.010000
   345          C    157     DC     C2    345     0.7959      12.010000
   346          O    157     DC     O2    346    -0.6548         16.000000
   347         C7    157     DC    C3'    347     0.0713      9.994000
   348         H1    157     DC    H3'    348     0.0985      3.024000
   349         CT    157     DC    C2'    349    -0.0854      7.978000
   350         HC    157     DC   H2'1    350     0.0718      3.024000
   351         HC    157     DC   H2'2    351     0.0718      3.024000
   352         OS    157     DC    O3'    352    -0.5232         16.000000   ; qtot -10.31
; residue 158 DC  rtp DC   q -1.0
   353          P    158     DC      P    353     1.1659      30.970000
   354         O2    158     DC    O1P    354    -0.7761         16.000000
   355         O2    158     DC    O2P    355    -0.7761         16.000000
   356         OS    158     DC    O5'    356    -0.4954         16.000000
   357         CJ    158     DC    C5'    357    -0.0069      7.978000
   358         H1    158     DC   H5'1    358     0.0754      3.024000
   359         H1    158     DC   H5'2    359     0.0754      3.024000
   360         CT    158     DC    C4'    360     0.1629      9.994000
   361         H1    158     DC    H4'    361     0.1176      3.024000
   362         OS    158     DC    O4'    362    -0.3691         16.000000
   363         CT    158     DC    C1'    363    -0.0116      9.994000
   364         H2    158     DC    H1'    364     0.1963      3.024000
   365         N*    158     DC     N1    365    -0.0339      14.010000
   366         C1    158     DC     C6    366    -0.0183      9.994000
   367         H4    158     DC     H6    367     0.2293      3.024000
   368         C1    158     DC     C5    368    -0.5222      9.994000
   369         HA    158     DC     H5    369     0.1863      3.024000
   370         CA    158     DC     C4    370     0.8439      12.010000
   371         N2    158     DC     N4    371    -0.9773      9.978000
   372          H    158     DC    H41    372     0.4314      3.024000
   373          H    158     DC    H42    373     0.4314      3.024000
   374         NC    158     DC     N3    374    -0.7748      14.010000
   375          C    158     DC     C2    375     0.7959      12.010000
   376          O    158     DC     O2    376    -0.6548         16.000000
   377         C7    158     DC    C3'    377     0.0713      9.994000
   378         H1    158     DC    H3'    378     0.0985      3.024000
   379         CT    158     DC    C2'    379    -0.0854      7.978000
   380         HC    158     DC   H2'1    380     0.0718      3.024000
   381         HC    158     DC   H2'2    381     0.0718      3.024000
   382         OS    158     DC    O3'    382    -0.5232         16.000000   ; qtot -11.31
; residue 159 DC  rtp DC   q -1.0
   383          P    159     DC      P    383     1.1659      30.970000
   384         O2    159     DC    O1P    384    -0.7761         16.000000
   385         O2    159     DC    O2P    385    -0.7761         16.000000
   386         OS    159     DC    O5'    386    -0.4954         16.000000
   387         CJ    159     DC    C5'    387    -0.0069      7.978000
   388         H1    159     DC   H5'1    388     0.0754      3.024000
   389         H1    159     DC   H5'2    389     0.0754      3.024000
   390         CT    159     DC    C4'    390     0.1629      9.994000
   391         H1    159     DC    H4'    391     0.1176      3.024000
   392         OS    159     DC    O4'    392    -0.3691         16.000000
   393         CT    159     DC    C1'    393    -0.0116      9.994000
   394         H2    159     DC    H1'    394     0.1963      3.024000
   395         N*    159     DC     N1    395    -0.0339      14.010000
   396         C1    159     DC     C6    396    -0.0183      9.994000
   397         H4    159     DC     H6    397     0.2293      3.024000
   398         C1    159     DC     C5    398    -0.5222      9.994000
   399         HA    159     DC     H5    399     0.1863      3.024000
   400         CA    159     DC     C4    400     0.8439      12.010000
   401         N2    159     DC     N4    401    -0.9773      9.978000
   402          H    159     DC    H41    402     0.4314      3.024000
   403          H    159     DC    H42    403     0.4314      3.024000
   404         NC    159     DC     N3    404    -0.7748      14.010000
   405          C    159     DC     C2    405     0.7959      12.010000
   406          O    159     DC     O2    406    -0.6548         16.000000
   407         C7    159     DC    C3'    407     0.0713      9.994000
   408         H1    159     DC    H3'    408     0.0985      3.024000
   409         CT    159     DC    C2'    409    -0.0854      7.978000
   410         HC    159     DC   H2'1    410     0.0718      3.024000
   411         HC    159     DC   H2'2    411     0.0718      3.024000
   412         OS    159     DC    O3'    412    -0.5232         16.000000   ; qtot -12.31
; residue 160 DG  rtp DG   q -1.0
   413          P    160     DG      P    413     1.1659      30.970000
   414         O2    160     DG    O1P    414    -0.7761         16.000000
   415         O2    160     DG    O2P    415    -0.7761         16.000000
   416         OS    160     DG    O5'    416    -0.4954         16.000000
   417         CJ    160     DG    C5'    417    -0.0069      7.978000
   418         H1    160     DG   H5'1    418     0.0754      3.024000
   419         H1    160     DG   H5'2    419     0.0754      3.024000
   420         CT    160     DG    C4'    420     0.1629      9.994000
   421         H1    160     DG    H4'    421     0.1176      3.024000
   422         OS    160     DG    O4'    422    -0.3691         16.000000
   423         CT    160     DG    C1'    423     0.0358      9.994000
   424         H2    160     DG    H1'    424     0.1746      3.024000
   425         N*    160     DG     N9    425     0.0577      14.010000
   426         CK    160     DG     C8    426     0.0736      9.994000
   427         H5    160     DG     H8    427     0.1997      3.024000
   428         NB    160     DG     N7    428    -0.5725      14.010000
   429         CB    160     DG     C5    429     0.1991      12.010000
   430          C    160     DG     C6    430     0.4918      12.010000
   431          O    160     DG     O6    431    -0.5699         16.000000
   432         NA    160     DG     N1    432    -0.5053      11.994000
   433          H    160     DG     H1    433      0.352      3.024000
   434         CA    160     DG     C2    434     0.7432      12.010000
   435         N2    160     DG     N2    435     -0.923      9.978000
   436          H    160     DG    H21    436     0.4235      3.024000
   437          H    160     DG    H22    437     0.4235      3.024000
   438         NC    160     DG     N3    438    -0.6636      14.010000
   439         CB    160     DG     C4    439     0.1814      12.010000
   440         C7    160     DG    C3'    440     0.0713      9.994000
   441         H1    160     DG    H3'    441     0.0985      3.024000
   442         CT    160     DG    C2'    442    -0.0854      7.978000
   443         HC    160     DG   H2'1    443     0.0718      3.024000
   444         HC    160     DG   H2'2    444     0.0718      3.024000
   445         OS    160     DG    O3'    445    -0.5232         16.000000   ; qtot -13.31
; residue 161 DG  rtp DG   q -1.0
   446          P    161     DG      P    446     1.1659      30.970000
   447         O2    161     DG    O1P    447    -0.7761         16.000000
   448         O2    161     DG    O2P    448    -0.7761         16.000000
   449         OS    161     DG    O5'    449    -0.4954         16.000000
   450         CJ    161     DG    C5'    450    -0.0069      7.978000
   451         H1    161     DG   H5'1    451     0.0754      3.024000
   452         H1    161     DG   H5'2    452     0.0754      3.024000
   453         CT    161     DG    C4'    453     0.1629      9.994000
   454         H1    161     DG    H4'    454     0.1176      3.024000
   455         OS    161     DG    O4'    455    -0.3691         16.000000
   456         CT    161     DG    C1'    456     0.0358      9.994000
   457         H2    161     DG    H1'    457     0.1746      3.024000
   458         N*    161     DG     N9    458     0.0577      14.010000
   459         CK    161     DG     C8    459     0.0736      9.994000
   460         H5    161     DG     H8    460     0.1997      3.024000
   461         NB    161     DG     N7    461    -0.5725      14.010000
   462         CB    161     DG     C5    462     0.1991      12.010000
   463          C    161     DG     C6    463     0.4918      12.010000
   464          O    161     DG     O6    464    -0.5699         16.000000
   465         NA    161     DG     N1    465    -0.5053      11.994000
   466          H    161     DG     H1    466      0.352      3.024000
   467         CA    161     DG     C2    467     0.7432      12.010000
   468         N2    161     DG     N2    468     -0.923      9.978000
   469          H    161     DG    H21    469     0.4235      3.024000
   470          H    161     DG    H22    470     0.4235      3.024000
   471         NC    161     DG     N3    471    -0.6636      14.010000
   472         CB    161     DG     C4    472     0.1814      12.010000
   473         C7    161     DG    C3'    473     0.0713      9.994000
   474         H1    161     DG    H3'    474     0.0985      3.024000
   475         CT    161     DG    C2'    475    -0.0854      7.978000
   476         HC    161     DG   H2'1    476     0.0718      3.024000
   477         HC    161     DG   H2'2    477     0.0718      3.024000
   478         OS    161     DG    O3'    478    -0.5232         16.000000   ; qtot -14.31
; residue 162 DG  rtp DG   q -1.0
   479          P    162     DG      P    479     1.1659      30.970000
   480         O2    162     DG    O1P    480    -0.7761         16.000000
   481         O2    162     DG    O2P    481    -0.7761         16.000000
   482         OS    162     DG    O5'    482    -0.4954         16.000000
   483         CJ    162     DG    C5'    483    -0.0069      7.978000
   484         H1    162     DG   H5'1    484     0.0754      3.024000
   485         H1    162     DG   H5'2    485     0.0754      3.024000
   486         CT    162     DG    C4'    486     0.1629      9.994000
   487         H1    162     DG    H4'    487     0.1176      3.024000
   488         OS    162     DG    O4'    488    -0.3691         16.000000
   489         CT    162     DG    C1'    489     0.0358      9.994000
   490         H2    162     DG    H1'    490     0.1746      3.024000
   491         N*    162     DG     N9    491     0.0577      14.010000
   492         CK    162     DG     C8    492     0.0736      9.994000
   493         H5    162     DG     H8    493     0.1997      3.024000
   494         NB    162     DG     N7    494    -0.5725      14.010000
   495         CB    162     DG     C5    495     0.1991      12.010000
   496          C    162     DG     C6    496     0.4918      12.010000
   497          O    162     DG     O6    497    -0.5699         16.000000
   498         NA    162     DG     N1    498    -0.5053      11.994000
   499          H    162     DG     H1    499      0.352      3.024000
   500         CA    162     DG     C2    500     0.7432      12.010000
   501         N2    162     DG     N2    501     -0.923      9.978000
   502          H    162     DG    H21    502     0.4235      3.024000
   503          H    162     DG    H22    503     0.4235      3.024000
   504         NC    162     DG     N3    504    -0.6636      14.010000
   505         CB    162     DG     C4    505     0.1814      12.010000
   506         C7    162     DG    C3'    506     0.0713      9.994000
   507         H1    162     DG    H3'    507     0.0985      3.024000
   508         CT    162     DG    C2'    508    -0.0854      7.978000
   509         HC    162     DG   H2'1    509     0.0718      3.024000
   510         HC    162     DG   H2'2    510     0.0718      3.024000
   511         OS    162     DG    O3'    511    -0.5232         16.000000   ; qtot -15.31
; residue 163 DC  rtp DC   q -1.0
   512          P    163     DC      P    512     1.1659      30.970000
   513         O2    163     DC    O1P    513    -0.7761         16.000000
   514         O2    163     DC    O2P    514    -0.7761         16.000000
   515         OS    163     DC    O5'    515    -0.4954         16.000000
   516         CJ    163     DC    C5'    516    -0.0069      7.978000
   517         H1    163     DC   H5'1    517     0.0754      3.024000
   518         H1    163     DC   H5'2    518     0.0754      3.024000
   519         CT    163     DC    C4'    519     0.1629      9.994000
   520         H1    163     DC    H4'    520     0.1176      3.024000
   521         OS    163     DC    O4'    521    -0.3691         16.000000
   522         CT    163     DC    C1'    522    -0.0116      9.994000
   523         H2    163     DC    H1'    523     0.1963      3.024000
   524         N*    163     DC     N1    524    -0.0339      14.010000
   525         C1    163     DC     C6    525    -0.0183      9.994000
   526         H4    163     DC     H6    526     0.2293      3.024000
   527         C1    163     DC     C5    527    -0.5222      9.994000
   528         HA    163     DC     H5    528     0.1863      3.024000
   529         CA    163     DC     C4    529     0.8439      12.010000
   530         N2    163     DC     N4    530    -0.9773      9.978000
   531          H    163     DC    H41    531     0.4314      3.024000
   532          H    163     DC    H42    532     0.4314      3.024000
   533         NC    163     DC     N3    533    -0.7748      14.010000
   534          C    163     DC     C2    534     0.7959      12.010000
   535          O    163     DC     O2    535    -0.6548         16.000000
   536         C7    163     DC    C3'    536     0.0713      9.994000
   537         H1    163     DC    H3'    537     0.0985      3.024000
   538         CT    163     DC    C2'    538    -0.0854      7.978000
   539         HC    163     DC   H2'1    539     0.0718      3.024000
   540         HC    163     DC   H2'2    540     0.0718      3.024000
   541         OS    163     DC    O3'    541    -0.5232         16.000000   ; qtot -16.31
; residue 164 DA  rtp DA   q -1.0
   542          P    164     DA      P    542     1.1659      30.970000
   543         O2    164     DA    O1P    543    -0.7761         16.000000
   544         O2    164     DA    O2P    544    -0.7761         16.000000
   545         OS    164     DA    O5'    545    -0.4954         16.000000
   546         CJ    164     DA    C5'    546    -0.0069      7.978000
   547         H1    164     DA   H5'1    547     0.0754      3.024000
   548         H1    164     DA   H5'2    548     0.0754      3.024000
   549         CT    164     DA    C4'    549     0.1629      9.994000
   550         H1    164     DA    H4'    550     0.1176      3.024000
   551         OS    164     DA    O4'    551    -0.3691         16.000000
   552         CT    164     DA    C1'    552     0.0431      9.994000
   553         H2    164     DA    H1'    553     0.1838      3.024000
   554         N*    164     DA     N9    554    -0.0268      14.010000
   555         C2    164     DA     C8    555     0.1607      9.994000
   556         H5    164     DA     H8    556     0.1877      3.024000
   557         NB    164     DA     N7    557    -0.6175      14.010000
   558         CB    164     DA     C5    558     0.0725      12.010000
   559         CA    164     DA     C6    559     0.6897      12.010000
   560         N2    164     DA     N6    560    -0.9123      9.978000
   561          H    164     DA    H61    561     0.4167      3.024000
   562          H    164     DA    H62    562     0.4167      3.024000
   563         NC    164     DA     N1    563    -0.7624      14.010000
   564         CQ    164     DA     C2    564     0.5716      9.994000
   565         H5    164     DA     H2    565     0.0598      3.024000
   566         NC    164     DA     N3    566    -0.7417      14.010000
   567         CB    164     DA     C4    567       0.38      12.010000
   568         C7    164     DA    C3'    568     0.0713      9.994000
   569         H1    164     DA    H3'    569     0.0985      3.024000
   570         CT    164     DA    C2'    570    -0.0854      7.978000
   571         HC    164     DA   H2'1    571     0.0718      3.024000
   572         HC    164     DA   H2'2    572     0.0718      3.024000
   573         OS    164     DA    O3'    573    -0.5232         16.000000   ; qtot -17.31
; residue 165 DG  rtp DG   q -1.0
   574          P    165     DG      P    574     1.1659      30.970000
   575         O2    165     DG    O1P    575    -0.7761         16.000000
   576         O2    165     DG    O2P    576    -0.7761         16.000000
   577         OS    165     DG    O5'    577    -0.4954         16.000000
   578         CJ    165     DG    C5'    578    -0.0069      7.978000
   579         H1    165     DG   H5'1    579     0.0754      3.024000
   580         H1    165     DG   H5'2    580     0.0754      3.024000
   581         CT    165     DG    C4'    581     0.1629      9.994000
   582         H1    165     DG    H4'    582     0.1176      3.024000
   583         OS    165     DG    O4'    583    -0.3691         16.000000
   584         CT    165     DG    C1'    584     0.0358      9.994000
   585         H2    165     DG    H1'    585     0.1746      3.024000
   586         N*    165     DG     N9    586     0.0577      14.010000
   587         CK    165     DG     C8    587     0.0736      9.994000
   588         H5    165     DG     H8    588     0.1997      3.024000
   589         NB    165     DG     N7    589    -0.5725      14.010000
   590         CB    165     DG     C5    590     0.1991      12.010000
   591          C    165     DG     C6    591     0.4918      12.010000
   592          O    165     DG     O6    592    -0.5699         16.000000
   593         NA    165     DG     N1    593    -0.5053      11.994000
   594          H    165     DG     H1    594      0.352      3.024000
   595         CA    165     DG     C2    595     0.7432      12.010000
   596         N2    165     DG     N2    596     -0.923      9.978000
   597          H    165     DG    H21    597     0.4235      3.024000
   598          H    165     DG    H22    598     0.4235      3.024000
   599         NC    165     DG     N3    599    -0.6636      14.010000
   600         CB    165     DG     C4    600     0.1814      12.010000
   601         C7    165     DG    C3'    601     0.0713      9.994000
   602         H1    165     DG    H3'    602     0.0985      3.024000
   603         CT    165     DG    C2'    603    -0.0854      7.978000
   604         HC    165     DG   H2'1    604     0.0718      3.024000
   605         HC    165     DG   H2'2    605     0.0718      3.024000
   606         OS    165     DG    O3'    606    -0.5232         16.000000   ; qtot -18.31
; residue 166 DG  rtp DG   q -1.0
   607          P    166     DG      P    607     1.1659      30.970000
   608         O2    166     DG    O1P    608    -0.7761         16.000000
   609         O2    166     DG    O2P    609    -0.7761         16.000000
   610         OS    166     DG    O5'    610    -0.4954         16.000000
   611         CJ    166     DG    C5'    611    -0.0069      7.978000
   612         H1    166     DG   H5'1    612     0.0754      3.024000
   613         H1    166     DG   H5'2    613     0.0754      3.024000
   614         CT    166     DG    C4'    614     0.1629      9.994000
   615         H1    166     DG    H4'    615     0.1176      3.024000
   616         OS    166     DG    O4'    616    -0.3691         16.000000
   617         CT    166     DG    C1'    617     0.0358      9.994000
   618         H2    166     DG    H1'    618     0.1746      3.024000
   619         N*    166     DG     N9    619     0.0577      14.010000
   620         CK    166     DG     C8    620     0.0736      9.994000
   621         H5    166     DG     H8    621     0.1997      3.024000
   622         NB    166     DG     N7    622    -0.5725      14.010000
   623         CB    166     DG     C5    623     0.1991      12.010000
   624          C    166     DG     C6    624     0.4918      12.010000
   625          O    166     DG     O6    625    -0.5699         16.000000
   626         NA    166     DG     N1    626    -0.5053      11.994000
   627          H    166     DG     H1    627      0.352      3.024000
   628         CA    166     DG     C2    628     0.7432      12.010000
   629         N2    166     DG     N2    629     -0.923      9.978000
   630          H    166     DG    H21    630     0.4235      3.024000
   631          H    166     DG    H22    631     0.4235      3.024000
   632         NC    166     DG     N3    632    -0.6636      14.010000
   633         CB    166     DG     C4    633     0.1814      12.010000
   634         C7    166     DG    C3'    634     0.0713      9.994000
   635         H1    166     DG    H3'    635     0.0985      3.024000
   636         CT    166     DG    C2'    636    -0.0854      7.978000
   637         HC    166     DG   H2'1    637     0.0718      3.024000
   638         HC    166     DG   H2'2    638     0.0718      3.024000
   639         OS    166     DG    O3'    639    -0.5232         16.000000   ; qtot -19.31
; residue 167 DG  rtp DG   q -1.0
   640          P    167     DG      P    640     1.1659      30.970000
   641         O2    167     DG    O1P    641    -0.7761         16.000000
   642         O2    167     DG    O2P    642    -0.7761         16.000000
   643         OS    167     DG    O5'    643    -0.4954         16.000000
   644         CJ    167     DG    C5'    644    -0.0069      7.978000
   645         H1    167     DG   H5'1    645     0.0754      3.024000
   646         H1    167     DG   H5'2    646     0.0754      3.024000
   647         CT    167     DG    C4'    647     0.1629      9.994000
   648         H1    167     DG    H4'    648     0.1176      3.024000
   649         OS    167     DG    O4'    649    -0.3691         16.000000
   650         CT    167     DG    C1'    650     0.0358      9.994000
   651         H2    167     DG    H1'    651     0.1746      3.024000
   652         N*    167     DG     N9    652     0.0577      14.010000
   653         CK    167     DG     C8    653     0.0736      9.994000
   654         H5    167     DG     H8    654     0.1997      3.024000
   655         NB    167     DG     N7    655    -0.5725      14.010000
   656         CB    167     DG     C5    656     0.1991      12.010000
   657          C    167     DG     C6    657     0.4918      12.010000
   658          O    167     DG     O6    658    -0.5699         16.000000
   659         NA    167     DG     N1    659    -0.5053      11.994000
   660          H    167     DG     H1    660      0.352      3.024000
   661         CA    167     DG     C2    661     0.7432      12.010000
   662         N2    167     DG     N2    662     -0.923      9.978000
   663          H    167     DG    H21    663     0.4235      3.024000
   664          H    167     DG    H22    664     0.4235      3.024000
   665         NC    167     DG     N3    665    -0.6636      14.010000
   666         CB    167     DG     C4    666     0.1814      12.010000
   667         C7    167     DG    C3'    667     0.0713      9.994000
   668         H1    167     DG    H3'    668     0.0985      3.024000
   669         CT    167     DG    C2'    669    -0.0854      7.978000
   670         HC    167     DG   H2'1    670     0.0718      3.024000
   671         HC    167     DG   H2'2    671     0.0718      3.024000
   672         OS    167     DG    O3'    672    -0.5232         16.000000   ; qtot -20.31
; residue 168 DG  rtp DG   q -1.0
   673          P    168     DG      P    673     1.1659      30.970000
   674         O2    168     DG    O1P    674    -0.7761         16.000000
   675         O2    168     DG    O2P    675    -0.7761         16.000000
   676         OS    168     DG    O5'    676    -0.4954         16.000000
   677         CJ    168     DG    C5'    677    -0.0069      7.978000
   678         H1    168     DG   H5'1    678     0.0754      3.024000
   679         H1    168     DG   H5'2    679     0.0754      3.024000
   680         CT    168     DG    C4'    680     0.1629      9.994000
   681         H1    168     DG    H4'    681     0.1176      3.024000
   682         OS    168     DG    O4'    682    -0.3691         16.000000
   683         CT    168     DG    C1'    683     0.0358      9.994000
   684         H2    168     DG    H1'    684     0.1746      3.024000
   685         N*    168     DG     N9    685     0.0577      14.010000
   686         CK    168     DG     C8    686     0.0736      9.994000
   687         H5    168     DG     H8    687     0.1997      3.024000
   688         NB    168     DG     N7    688    -0.5725      14.010000
   689         CB    168     DG     C5    689     0.1991      12.010000
   690          C    168     DG     C6    690     0.4918      12.010000
   691          O    168     DG     O6    691    -0.5699         16.000000
   692         NA    168     DG     N1    692    -0.5053      11.994000
   693          H    168     DG     H1    693      0.352      3.024000
   694         CA    168     DG     C2    694     0.7432      12.010000
   695         N2    168     DG     N2    695     -0.923      9.978000
   696          H    168     DG    H21    696     0.4235      3.024000
   697          H    168     DG    H22    697     0.4235      3.024000
   698         NC    168     DG     N3    698    -0.6636      14.010000
   699         CB    168     DG     C4    699     0.1814      12.010000
   700         C7    168     DG    C3'    700     0.0713      9.994000
   701         H1    168     DG    H3'    701     0.0985      3.024000
   702         CT    168     DG    C2'    702    -0.0854      7.978000
   703         HC    168     DG   H2'1    703     0.0718      3.024000
   704         HC    168     DG   H2'2    704     0.0718      3.024000
   705         OS    168     DG    O3'    705    -0.5232         16.000000   ; qtot -21.31
; residue 169 DC  rtp DC   q -1.0
   706          P    169     DC      P    706     1.1659      30.970000
   707         O2    169     DC    O1P    707    -0.7761         16.000000
   708         O2    169     DC    O2P    708    -0.7761         16.000000
   709         OS    169     DC    O5'    709    -0.4954         16.000000
   710         CJ    169     DC    C5'    710    -0.0069      7.978000
   711         H1    169     DC   H5'1    711     0.0754      3.024000
   712         H1    169     DC   H5'2    712     0.0754      3.024000
   713         CT    169     DC    C4'    713     0.1629      9.994000
   714         H1    169     DC    H4'    714     0.1176      3.024000
   715         OS    169     DC    O4'    715    -0.3691         16.000000
   716         CT    169     DC    C1'    716    -0.0116      9.994000
   717         H2    169     DC    H1'    717     0.1963      3.024000
   718         N*    169     DC     N1    718    -0.0339      14.010000
   719         C1    169     DC     C6    719    -0.0183      9.994000
   720         H4    169     DC     H6    720     0.2293      3.024000
   721         C1    169     DC     C5    721    -0.5222      9.994000
   722         HA    169     DC     H5    722     0.1863      3.024000
   723         CA    169     DC     C4    723     0.8439      12.010000
   724         N2    169     DC     N4    724    -0.9773      9.978000
   725          H    169     DC    H41    725     0.4314      3.024000
   726          H    169     DC    H42    726     0.4314      3.024000
   727         NC    169     DC     N3    727    -0.7748      14.010000
   728          C    169     DC     C2    728     0.7959      12.010000
   729          O    169     DC     O2    729    -0.6548         16.000000
   730         C7    169     DC    C3'    730     0.0713      9.994000
   731         H1    169     DC    H3'    731     0.0985      3.024000
   732         CT    169     DC    C2'    732    -0.0854      7.978000
   733         HC    169     DC   H2'1    733     0.0718      3.024000
   734         HC    169     DC   H2'2    734     0.0718      3.024000
   735         OS    169     DC    O3'    735    -0.5232         16.000000   ; qtot -22.31
; residue 170 DC  rtp DC   q -1.0
   736          P    170     DC      P    736     1.1659      30.970000
   737         O2    170     DC    O1P    737    -0.7761         16.000000
   738         O2    170     DC    O2P    738    -0.7761         16.000000
   739         OS    170     DC    O5'    739    -0.4954         16.000000
   740         CJ    170     DC    C5'    740    -0.0069      7.978000
   741         H1    170     DC   H5'1    741     0.0754      3.024000
   742         H1    170     DC   H5'2    742     0.0754      3.024000
   743         CT    170     DC    C4'    743     0.1629      9.994000
   744         H1    170     DC    H4'    744     0.1176      3.024000
   745         OS    170     DC    O4'    745    -0.3691         16.000000
   746         CT    170     DC    C1'    746    -0.0116      9.994000
   747         H2    170     DC    H1'    747     0.1963      3.024000
   748         N*    170     DC     N1    748    -0.0339      14.010000
   749         C1    170     DC     C6    749    -0.0183      9.994000
   750         H4    170     DC     H6    750     0.2293      3.024000
   751         C1    170     DC     C5    751    -0.5222      9.994000
   752         HA    170     DC     H5    752     0.1863      3.024000
   753         CA    170     DC     C4    753     0.8439      12.010000
   754         N2    170     DC     N4    754    -0.9773      9.978000
   755          H    170     DC    H41    755     0.4314      3.024000
   756          H    170     DC    H42    756     0.4314      3.024000
   757         NC    170     DC     N3    757    -0.7748      14.010000
   758          C    170     DC     C2    758     0.7959      12.010000
   759          O    170     DC     O2    759    -0.6548         16.000000
   760         C7    170     DC    C3'    760     0.0713      9.994000
   761         H1    170     DC    H3'    761     0.0985      3.024000
   762         CT    170     DC    C2'    762    -0.0854      7.978000
   763         HC    170     DC   H2'1    763     0.0718      3.024000
   764         HC    170     DC   H2'2    764     0.0718      3.024000
   765         OS    170     DC    O3'    765    -0.5232         16.000000   ; qtot -23.31
; residue 171 DC  rtp DC   q -1.0
   766          P    171     DC      P    766     1.1659      30.970000
   767         O2    171     DC    O1P    767    -0.7761         16.000000
   768         O2    171     DC    O2P    768    -0.7761         16.000000
   769         OS    171     DC    O5'    769    -0.4954         16.000000
   770         CJ    171     DC    C5'    770    -0.0069      7.978000
   771         H1    171     DC   H5'1    771     0.0754      3.024000
   772         H1    171     DC   H5'2    772     0.0754      3.024000
   773         CT    171     DC    C4'    773     0.1629      9.994000
   774         H1    171     DC    H4'    774     0.1176      3.024000
   775         OS    171     DC    O4'    775    -0.3691         16.000000
   776         CT    171     DC    C1'    776    -0.0116      9.994000
   777         H2    171     DC    H1'    777     0.1963      3.024000
   778         N*    171     DC     N1    778    -0.0339      14.010000
   779         C1    171     DC     C6    779    -0.0183      9.994000
   780         H4    171     DC     H6    780     0.2293      3.024000
   781         C1    171     DC     C5    781    -0.5222      9.994000
   782         HA    171     DC     H5    782     0.1863      3.024000
   783         CA    171     DC     C4    783     0.8439      12.010000
   784         N2    171     DC     N4    784    -0.9773      9.978000
   785          H    171     DC    H41    785     0.4314      3.024000
   786          H    171     DC    H42    786     0.4314      3.024000
   787         NC    171     DC     N3    787    -0.7748      14.010000
   788          C    171     DC     C2    788     0.7959      12.010000
   789          O    171     DC     O2    789    -0.6548         16.000000
   790         C7    171     DC    C3'    790     0.0713      9.994000
   791         H1    171     DC    H3'    791     0.0985      3.024000
   792         CT    171     DC    C2'    792    -0.0854      7.978000
   793         HC    171     DC   H2'1    793     0.0718      3.024000
   794         HC    171     DC   H2'2    794     0.0718      3.024000
   795         OS    171     DC    O3'    795    -0.5232         16.000000   ; qtot -24.31
; residue 172 DA  rtp DA   q -1.0
   796          P    172     DA      P    796     1.1659      30.970000
   797         O2    172     DA    O1P    797    -0.7761         16.000000
   798         O2    172     DA    O2P    798    -0.7761         16.000000
   799         OS    172     DA    O5'    799    -0.4954         16.000000
   800         CJ    172     DA    C5'    800    -0.0069      7.978000
   801         H1    172     DA   H5'1    801     0.0754      3.024000
   802         H1    172     DA   H5'2    802     0.0754      3.024000
   803         CT    172     DA    C4'    803     0.1629      9.994000
   804         H1    172     DA    H4'    804     0.1176      3.024000
   805         OS    172     DA    O4'    805    -0.3691         16.000000
   806         CT    172     DA    C1'    806     0.0431      9.994000
   807         H2    172     DA    H1'    807     0.1838      3.024000
   808         N*    172     DA     N9    808    -0.0268      14.010000
   809         C2    172     DA     C8    809     0.1607      9.994000
   810         H5    172     DA     H8    810     0.1877      3.024000
   811         NB    172     DA     N7    811    -0.6175      14.010000
   812         CB    172     DA     C5    812     0.0725      12.010000
   813         CA    172     DA     C6    813     0.6897      12.010000
   814         N2    172     DA     N6    814    -0.9123      9.978000
   815          H    172     DA    H61    815     0.4167      3.024000
   816          H    172     DA    H62    816     0.4167      3.024000
   817         NC    172     DA     N1    817    -0.7624      14.010000
   818         CQ    172     DA     C2    818     0.5716      9.994000
   819         H5    172     DA     H2    819     0.0598      3.024000
   820         NC    172     DA     N3    820    -0.7417      14.010000
   821         CB    172     DA     C4    821       0.38      12.010000
   822         C7    172     DA    C3'    822     0.0713      9.994000
   823         H1    172     DA    H3'    823     0.0985      3.024000
   824         CT    172     DA    C2'    824    -0.0854      7.978000
   825         HC    172     DA   H2'1    825     0.0718      3.024000
   826         HC    172     DA   H2'2    826     0.0718      3.024000
   827         OS    172     DA    O3'    827    -0.5232         16.000000   ; qtot -25.31
; residue 173 DG  rtp DG   q -1.0
   828          P    173     DG      P    828     1.1659      30.970000
   829         O2    173     DG    O1P    829    -0.7761         16.000000
   830         O2    173     DG    O2P    830    -0.7761         16.000000
   831         OS    173     DG    O5'    831    -0.4954         16.000000
   832         CJ    173     DG    C5'    832    -0.0069      7.978000
   833         H1    173     DG   H5'1    833     0.0754      3.024000
   834         H1    173     DG   H5'2    834     0.0754      3.024000
   835         CT    173     DG    C4'    835     0.1629      9.994000
   836         H1    173     DG    H4'    836     0.1176      3.024000
   837         OS    173     DG    O4'    837    -0.3691         16.000000
   838         CT    173     DG    C1'    838     0.0358      9.994000
   839         H2    173     DG    H1'    839     0.1746      3.024000
   840         N*    173     DG     N9    840     0.0577      14.010000
   841         CK    173     DG     C8    841     0.0736      9.994000
   842         H5    173     DG     H8    842     0.1997      3.024000
   843         NB    173     DG     N7    843    -0.5725      14.010000
   844         CB    173     DG     C5    844     0.1991      12.010000
   845          C    173     DG     C6    845     0.4918      12.010000
   846          O    173     DG     O6    846    -0.5699         16.000000
   847         NA    173     DG     N1    847    -0.5053      11.994000
   848          H    173     DG     H1    848      0.352      3.024000
   849         CA    173     DG     C2    849     0.7432      12.010000
   850         N2    173     DG     N2    850     -0.923      9.978000
   851          H    173     DG    H21    851     0.4235      3.024000
   852          H    173     DG    H22    852     0.4235      3.024000
   853         NC    173     DG     N3    853    -0.6636      14.010000
   854         CB    173     DG     C4    854     0.1814      12.010000
   855         C7    173     DG    C3'    855     0.0713      9.994000
   856         H1    173     DG    H3'    856     0.0985      3.024000
   857         CT    173     DG    C2'    857    -0.0854      7.978000
   858         HC    173     DG   H2'1    858     0.0718      3.024000
   859         HC    173     DG   H2'2    859     0.0718      3.024000
   860         OS    173     DG    O3'    860    -0.5232         16.000000   ; qtot -26.31
; residue 174 DG  rtp DG   q -1.0
   861          P    174     DG      P    861     1.1659      30.970000
   862         O2    174     DG    O1P    862    -0.7761         16.000000
   863         O2    174     DG    O2P    863    -0.7761         16.000000
   864         OS    174     DG    O5'    864    -0.4954         16.000000
   865         CJ    174     DG    C5'    865    -0.0069      7.978000
   866         H1    174     DG   H5'1    866     0.0754      3.024000
   867         H1    174     DG   H5'2    867     0.0754      3.024000
   868         CT    174     DG    C4'    868     0.1629      9.994000
   869         H1    174     DG    H4'    869     0.1176      3.024000
   870         OS    174     DG    O4'    870    -0.3691         16.000000
   871         CT    174     DG    C1'    871     0.0358      9.994000
   872         H2    174     DG    H1'    872     0.1746      3.024000
   873         N*    174     DG     N9    873     0.0577      14.010000
   874         CK    174     DG     C8    874     0.0736      9.994000
   875         H5    174     DG     H8    875     0.1997      3.024000
   876         NB    174     DG     N7    876    -0.5725      14.010000
   877         CB    174     DG     C5    877     0.1991      12.010000
   878          C    174     DG     C6    878     0.4918      12.010000
   879          O    174     DG     O6    879    -0.5699         16.000000
   880         NA    174     DG     N1    880    -0.5053      11.994000
   881          H    174     DG     H1    881      0.352      3.024000
   882         CA    174     DG     C2    882     0.7432      12.010000
   883         N2    174     DG     N2    883     -0.923      9.978000
   884          H    174     DG    H21    884     0.4235      3.024000
   885          H    174     DG    H22    885     0.4235      3.024000
   886         NC    174     DG     N3    886    -0.6636      14.010000
   887         CB    174     DG     C4    887     0.1814      12.010000
   888         C7    174     DG    C3'    888     0.0713      9.994000
   889         H1    174     DG    H3'    889     0.0985      3.024000
   890         CT    174     DG    C2'    890    -0.0854      7.978000
   891         HC    174     DG   H2'1    891     0.0718      3.024000
   892         HC    174     DG   H2'2    892     0.0718      3.024000
   893         OS    174     DG    O3'    893    -0.5232         16.000000   ; qtot -27.31
; residue 175 DA  rtp DA   q -1.0
   894          P    175     DA      P    894     1.1659      30.970000
   895         O2    175     DA    O1P    895    -0.7761         16.000000
   896         O2    175     DA    O2P    896    -0.7761         16.000000
   897         OS    175     DA    O5'    897    -0.4954         16.000000
   898         CJ    175     DA    C5'    898    -0.0069      7.978000
   899         H1    175     DA   H5'1    899     0.0754      3.024000
   900         H1    175     DA   H5'2    900     0.0754      3.024000
   901         CT    175     DA    C4'    901     0.1629      9.994000
   902         H1    175     DA    H4'    902     0.1176      3.024000
   903         OS    175     DA    O4'    903    -0.3691         16.000000
   904         CT    175     DA    C1'    904     0.0431      9.994000
   905         H2    175     DA    H1'    905     0.1838      3.024000
   906         N*    175     DA     N9    906    -0.0268      14.010000
   907         C2    175     DA     C8    907     0.1607      9.994000
   908         H5    175     DA     H8    908     0.1877      3.024000
   909         NB    175     DA     N7    909    -0.6175      14.010000
   910         CB    175     DA     C5    910     0.0725      12.010000
   911         CA    175     DA     C6    911     0.6897      12.010000
   912         N2    175     DA     N6    912    -0.9123      9.978000
   913          H    175     DA    H61    913     0.4167      3.024000
   914          H    175     DA    H62    914     0.4167      3.024000
   915         NC    175     DA     N1    915    -0.7624      14.010000
   916         CQ    175     DA     C2    916     0.5716      9.994000
   917         H5    175     DA     H2    917     0.0598      3.024000
   918         NC    175     DA     N3    918    -0.7417      14.010000
   919         CB    175     DA     C4    919       0.38      12.010000
   920         C7    175     DA    C3'    920     0.0713      9.994000
   921         H1    175     DA    H3'    921     0.0985      3.024000
   922         CT    175     DA    C2'    922    -0.0854      7.978000
   923         HC    175     DA   H2'1    923     0.0718      3.024000
   924         HC    175     DA   H2'2    924     0.0718      3.024000
   925         OS    175     DA    O3'    925    -0.5232         16.000000   ; qtot -28.31
; residue 176 DG  rtp DG   q -1.0
   926          P    176     DG      P    926     1.1659      30.970000
   927         O2    176     DG    O1P    927    -0.7761         16.000000
   928         O2    176     DG    O2P    928    -0.7761         16.000000
   929         OS    176     DG    O5'    929    -0.4954         16.000000
   930         CJ    176     DG    C5'    930    -0.0069      7.978000
   931         H1    176     DG   H5'1    931     0.0754      3.024000
   932         H1    176     DG   H5'2    932     0.0754      3.024000
   933         CT    176     DG    C4'    933     0.1629      9.994000
   934         H1    176     DG    H4'    934     0.1176      3.024000
   935         OS    176     DG    O4'    935    -0.3691         16.000000
   936         CT    176     DG    C1'    936     0.0358      9.994000
   937         H2    176     DG    H1'    937     0.1746      3.024000
   938         N*    176     DG     N9    938     0.0577      14.010000
   939         CK    176     DG     C8    939     0.0736      9.994000
   940         H5    176     DG     H8    940     0.1997      3.024000
   941         NB    176     DG     N7    941    -0.5725      14.010000
   942         CB    176     DG     C5    942     0.1991      12.010000
   943          C    176     DG     C6    943     0.4918      12.010000
   944          O    176     DG     O6    944    -0.5699         16.000000
   945         NA    176     DG     N1    945    -0.5053      11.994000
   946          H    176     DG     H1    946      0.352      3.024000
   947         CA    176     DG     C2    947     0.7432      12.010000
   948         N2    176     DG     N2    948     -0.923      9.978000
   949          H    176     DG    H21    949     0.4235      3.024000
   950          H    176     DG    H22    950     0.4235      3.024000
   951         NC    176     DG     N3    951    -0.6636      14.010000
   952         CB    176     DG     C4    952     0.1814      12.010000
   953         C7    176     DG    C3'    953     0.0713      9.994000
   954         H1    176     DG    H3'    954     0.0985      3.024000
   955         CT    176     DG    C2'    955    -0.0854      7.978000
   956         HC    176     DG   H2'1    956     0.0718      3.024000
   957         HC    176     DG   H2'2    957     0.0718      3.024000
   958         OS    176     DG    O3'    958    -0.5232         16.000000   ; qtot -29.31
; residue 177 DG  rtp DG   q -1.0
   959          P    177     DG      P    959     1.1659      30.970000
   960         O2    177     DG    O1P    960    -0.7761         16.000000
   961         O2    177     DG    O2P    961    -0.7761         16.000000
   962         OS    177     DG    O5'    962    -0.4954         16.000000
   963         CJ    177     DG    C5'    963    -0.0069      7.978000
   964         H1    177     DG   H5'1    964     0.0754      3.024000
   965         H1    177     DG   H5'2    965     0.0754      3.024000
   966         CT    177     DG    C4'    966     0.1629      9.994000
   967         H1    177     DG    H4'    967     0.1176      3.024000
   968         OS    177     DG    O4'    968    -0.3691         16.000000
   969         CT    177     DG    C1'    969     0.0358      9.994000
   970         H2    177     DG    H1'    970     0.1746      3.024000
   971         N*    177     DG     N9    971     0.0577      14.010000
   972         CK    177     DG     C8    972     0.0736      9.994000
   973         H5    177     DG     H8    973     0.1997      3.024000
   974         NB    177     DG     N7    974    -0.5725      14.010000
   975         CB    177     DG     C5    975     0.1991      12.010000
   976          C    177     DG     C6    976     0.4918      12.010000
   977          O    177     DG     O6    977    -0.5699         16.000000
   978         NA    177     DG     N1    978    -0.5053      11.994000
   979          H    177     DG     H1    979      0.352      3.024000
   980         CA    177     DG     C2    980     0.7432      12.010000
   981         N2    177     DG     N2    981     -0.923      9.978000
   982          H    177     DG    H21    982     0.4235      3.024000
   983          H    177     DG    H22    983     0.4235      3.024000
   984         NC    177     DG     N3    984    -0.6636      14.010000
   985         CB    177     DG     C4    985     0.1814      12.010000
   986         C7    177     DG    C3'    986     0.0713      9.994000
   987         H1    177     DG    H3'    987     0.0985      3.024000
   988         CT    177     DG    C2'    988    -0.0854      7.978000
   989         HC    177     DG   H2'1    989     0.0718      3.024000
   990         HC    177     DG   H2'2    990     0.0718      3.024000
   991         OS    177     DG    O3'    991    -0.5232         16.000000   ; qtot -30.31
; residue 178 DG  rtp DG   q -1.0
   992          P    178     DG      P    992     1.1659      30.970000
   993         O2    178     DG    O1P    993    -0.7761         16.000000
   994         O2    178     DG    O2P    994    -0.7761         16.000000
   995         OS    178     DG    O5'    995    -0.4954         16.000000
   996         CJ    178     DG    C5'    996    -0.0069      7.978000
   997         H1    178     DG   H5'1    997     0.0754      3.024000
   998         H1    178     DG   H5'2    998     0.0754      3.024000
   999         CT    178     DG    C4'    999     0.1629      9.994000
  1000         H1    178     DG    H4'   1000     0.1176      3.024000
  1001         OS    178     DG    O4'   1001    -0.3691         16.000000
  1002         CT    178     DG    C1'   1002     0.0358      9.994000
  1003         H2    178     DG    H1'   1003     0.1746      3.024000
  1004         N*    178     DG     N9   1004     0.0577      14.010000
  1005         CK    178     DG     C8   1005     0.0736      9.994000
  1006         H5    178     DG     H8   1006     0.1997      3.024000
  1007         NB    178     DG     N7   1007    -0.5725      14.010000
  1008         CB    178     DG     C5   1008     0.1991      12.010000
  1009          C    178     DG     C6   1009     0.4918      12.010000
  1010          O    178     DG     O6   1010    -0.5699         16.000000
  1011         NA    178     DG     N1   1011    -0.5053      11.994000
  1012          H    178     DG     H1   1012      0.352      3.024000
  1013         CA    178     DG     C2   1013     0.7432      12.010000
  1014         N2    178     DG     N2   1014     -0.923      9.978000
  1015          H    178     DG    H21   1015     0.4235      3.024000
  1016          H    178     DG    H22   1016     0.4235      3.024000
  1017         NC    178     DG     N3   1017    -0.6636      14.010000
  1018         CB    178     DG     C4   1018     0.1814      12.010000
  1019         C7    178     DG    C3'   1019     0.0713      9.994000
  1020         H1    178     DG    H3'   1020     0.0985      3.024000
  1021         CT    178     DG    C2'   1021    -0.0854      7.978000
  1022         HC    178     DG   H2'1   1022     0.0718      3.024000
  1023         HC    178     DG   H2'2   1023     0.0718      3.024000
  1024         OS    178     DG    O3'   1024    -0.5232         16.000000   ; qtot -31.31
; residue 179 DG  rtp DG   q -1.0
  1025          P    179     DG      P   1025     1.1659      30.970000
  1026         O2    179     DG    O1P   1026    -0.7761         16.000000
  1027         O2    179     DG    O2P   1027    -0.7761         16.000000
  1028         OS    179     DG    O5'   1028    -0.4954         16.000000
  1029         CJ    179     DG    C5'   1029    -0.0069      7.978000
  1030         H1    179     DG   H5'1   1030     0.0754      3.024000
  1031         H1    179     DG   H5'2   1031     0.0754      3.024000
  1032         CT    179     DG    C4'   1032     0.1629      9.994000
  1033         H1    179     DG    H4'   1033     0.1176      3.024000
  1034         OS    179     DG    O4'   1034    -0.3691         16.000000
  1035         CT    179     DG    C1'   1035     0.0358      9.994000
  1036         H2    179     DG    H1'   1036     0.1746      3.024000
  1037         N*    179     DG     N9   1037     0.0577      14.010000
  1038         CK    179     DG     C8   1038     0.0736      9.994000
  1039         H5    179     DG     H8   1039     0.1997      3.024000
  1040         NB    179     DG     N7   1040    -0.5725      14.010000
  1041         CB    179     DG     C5   1041     0.1991      12.010000
  1042          C    179     DG     C6   1042     0.4918      12.010000
  1043          O    179     DG     O6   1043    -0.5699         16.000000
  1044         NA    179     DG     N1   1044    -0.5053      11.994000
  1045          H    179     DG     H1   1045      0.352      3.024000
  1046         CA    179     DG     C2   1046     0.7432      12.010000
  1047         N2    179     DG     N2   1047     -0.923      9.978000
  1048          H    179     DG    H21   1048     0.4235      3.024000
  1049          H    179     DG    H22   1049     0.4235      3.024000
  1050         NC    179     DG     N3   1050    -0.6636      14.010000
  1051         CB    179     DG     C4   1051     0.1814      12.010000
  1052         C7    179     DG    C3'   1052     0.0713      9.994000
  1053         H1    179     DG    H3'   1053     0.0985      3.024000
  1054         CT    179     DG    C2'   1054    -0.0854      7.978000
  1055         HC    179     DG   H2'1   1055     0.0718      3.024000
  1056         HC    179     DG   H2'2   1056     0.0718      3.024000
  1057         OS    179     DG    O3'   1057    -0.5232         16.000000   ; qtot -32.31
; residue 180 DT  rtp DT   q -1.0
  1058          P    180     DT      P   1058     1.1659      30.970000
  1059         O2    180     DT    O1P   1059    -0.7761         16.000000
  1060         O2    180     DT    O2P   1060    -0.7761         16.000000
  1061         OS    180     DT    O5'   1061    -0.4954         16.000000
  1062         CJ    180     DT    C5'   1062    -0.0069      7.978000
  1063         H1    180     DT   H5'1   1063     0.0754      3.024000
  1064         H1    180     DT   H5'2   1064     0.0754      3.024000
  1065         CT    180     DT    C4'   1065     0.1629      9.994000
  1066         H1    180     DT    H4'   1066     0.1176      3.024000
  1067         OS    180     DT    O4'   1067    -0.3691         16.000000
  1068         CT    180     DT    C1'   1068      0.068      9.994000
  1069         H2    180     DT    H1'   1069     0.1804      3.024000
  1070         N*    180     DT     N1   1070    -0.0239      14.010000
  1071         CM    180     DT     C6   1071    -0.2209      9.994000
  1072         H4    180     DT     H6   1072     0.2607      3.024000
  1073         CM    180     DT     C5   1073     0.0025      12.010000
  1074         CT    180     DT     C7   1074    -0.2269      5.962000
  1075         HC    180     DT    H71   1075      0.077      3.024000
  1076         HC    180     DT    H72   1076      0.077      3.024000
  1077         HC    180     DT    H73   1077      0.077      3.024000
  1078          C    180     DT     C4   1078     0.5194      12.010000
  1079          O    180     DT     O4   1079    -0.5563         16.000000
  1080         NA    180     DT     N3   1080     -0.434      11.994000
  1081          H    180     DT     H3   1081      0.342      3.024000
  1082          C    180     DT     C2   1082     0.5677      12.010000
  1083          O    180     DT     O2   1083    -0.5881         16.000000
  1084         C7    180     DT    C3'   1084     0.0713      9.994000
  1085         H1    180     DT    H3'   1085     0.0985      3.024000
  1086         CT    180     DT    C2'   1086    -0.0854      7.978000
  1087         HC    180     DT   H2'1   1087     0.0718      3.024000
  1088         HC    180     DT   H2'2   1088     0.0718      3.024000
  1089         OS    180     DT    O3'   1089    -0.5232         16.000000   ; qtot -33.31
; residue 181 DG  rtp DG   q -1.0
  1090          P    181     DG      P   1090     1.1659      30.970000
  1091         O2    181     DG    O1P   1091    -0.7761         16.000000
  1092         O2    181     DG    O2P   1092    -0.7761         16.000000
  1093         OS    181     DG    O5'   1093    -0.4954         16.000000
  1094         CJ    181     DG    C5'   1094    -0.0069      7.978000
  1095         H1    181     DG   H5'1   1095     0.0754      3.024000
  1096         H1    181     DG   H5'2   1096     0.0754      3.024000
  1097         CT    181     DG    C4'   1097     0.1629      9.994000
  1098         H1    181     DG    H4'   1098     0.1176      3.024000
  1099         OS    181     DG    O4'   1099    -0.3691         16.000000
  1100         CT    181     DG    C1'   1100     0.0358      9.994000
  1101         H2    181     DG    H1'   1101     0.1746      3.024000
  1102         N*    181     DG     N9   1102     0.0577      14.010000
  1103         CK    181     DG     C8   1103     0.0736      9.994000
  1104         H5    181     DG     H8   1104     0.1997      3.024000
  1105         NB    181     DG     N7   1105    -0.5725      14.010000
  1106         CB    181     DG     C5   1106     0.1991      12.010000
  1107          C    181     DG     C6   1107     0.4918      12.010000
  1108          O    181     DG     O6   1108    -0.5699         16.000000
  1109         NA    181     DG     N1   1109    -0.5053      11.994000
  1110          H    181     DG     H1   1110      0.352      3.024000
  1111         CA    181     DG     C2   1111     0.7432      12.010000
  1112         N2    181     DG     N2   1112     -0.923      9.978000
  1113          H    181     DG    H21   1113     0.4235      3.024000
  1114          H    181     DG    H22   1114     0.4235      3.024000
  1115         NC    181     DG     N3   1115    -0.6636      14.010000
  1116         CB    181     DG     C4   1116     0.1814      12.010000
  1117         C7    181     DG    C3'   1117     0.0713      9.994000
  1118         H1    181     DG    H3'   1118     0.0985      3.024000
  1119         CT    181     DG    C2'   1119    -0.0854      7.978000
  1120         HC    181     DG   H2'1   1120     0.0718      3.024000
  1121         HC    181     DG   H2'2   1121     0.0718      3.024000
  1122         OS    181     DG    O3'   1122    -0.5232         16.000000   ; qtot -34.31
; residue 182 DG  rtp DG   q -1.0
  1123          P    182     DG      P   1123     1.1659      30.970000
  1124         O2    182     DG    O1P   1124    -0.7761         16.000000
  1125         O2    182     DG    O2P   1125    -0.7761         16.000000
  1126         OS    182     DG    O5'   1126    -0.4954         16.000000
  1127         CJ    182     DG    C5'   1127    -0.0069      7.978000
  1128         H1    182     DG   H5'1   1128     0.0754      3.024000
  1129         H1    182     DG   H5'2   1129     0.0754      3.024000
  1130         CT    182     DG    C4'   1130     0.1629      9.994000
  1131         H1    182     DG    H4'   1131     0.1176      3.024000
  1132         OS    182     DG    O4'   1132    -0.3691         16.000000
  1133         CT    182     DG    C1'   1133     0.0358      9.994000
  1134         H2    182     DG    H1'   1134     0.1746      3.024000
  1135         N*    182     DG     N9   1135     0.0577      14.010000
  1136         CK    182     DG     C8   1136     0.0736      9.994000
  1137         H5    182     DG     H8   1137     0.1997      3.024000
  1138         NB    182     DG     N7   1138    -0.5725      14.010000
  1139         CB    182     DG     C5   1139     0.1991      12.010000
  1140          C    182     DG     C6   1140     0.4918      12.010000
  1141          O    182     DG     O6   1141    -0.5699         16.000000
  1142         NA    182     DG     N1   1142    -0.5053      11.994000
  1143          H    182     DG     H1   1143      0.352      3.024000
  1144         CA    182     DG     C2   1144     0.7432      12.010000
  1145         N2    182     DG     N2   1145     -0.923      9.978000
  1146          H    182     DG    H21   1146     0.4235      3.024000
  1147          H    182     DG    H22   1147     0.4235      3.024000
  1148         NC    182     DG     N3   1148    -0.6636      14.010000
  1149         CB    182     DG     C4   1149     0.1814      12.010000
  1150         C7    182     DG    C3'   1150     0.0713      9.994000
  1151         H1    182     DG    H3'   1151     0.0985      3.024000
  1152         CT    182     DG    C2'   1152    -0.0854      7.978000
  1153         HC    182     DG   H2'1   1153     0.0718      3.024000
  1154         HC    182     DG   H2'2   1154     0.0718      3.024000
  1155         OS    182     DG    O3'   1155    -0.5232         16.000000   ; qtot -35.31
; residue 183 DT  rtp DT   q -1.0
  1156          P    183     DT      P   1156     1.1659      30.970000
  1157         O2    183     DT    O1P   1157    -0.7761         16.000000
  1158         O2    183     DT    O2P   1158    -0.7761         16.000000
  1159         OS    183     DT    O5'   1159    -0.4954         16.000000
  1160         CJ    183     DT    C5'   1160    -0.0069      7.978000
  1161         H1    183     DT   H5'1   1161     0.0754      3.024000
  1162         H1    183     DT   H5'2   1162     0.0754      3.024000
  1163         CT    183     DT    C4'   1163     0.1629      9.994000
  1164         H1    183     DT    H4'   1164     0.1176      3.024000
  1165         OS    183     DT    O4'   1165    -0.3691         16.000000
  1166         CT    183     DT    C1'   1166      0.068      9.994000
  1167         H2    183     DT    H1'   1167     0.1804      3.024000
  1168         N*    183     DT     N1   1168    -0.0239      14.010000
  1169         CM    183     DT     C6   1169    -0.2209      9.994000
  1170         H4    183     DT     H6   1170     0.2607      3.024000
  1171         CM    183     DT     C5   1171     0.0025      12.010000
  1172         CT    183     DT     C7   1172    -0.2269      5.962000
  1173         HC    183     DT    H71   1173      0.077      3.024000
  1174         HC    183     DT    H72   1174      0.077      3.024000
  1175         HC    183     DT    H73   1175      0.077      3.024000
  1176          C    183     DT     C4   1176     0.5194      12.010000
  1177          O    183     DT     O4   1177    -0.5563         16.000000
  1178         NA    183     DT     N3   1178     -0.434      11.994000
  1179          H    183     DT     H3   1179      0.342      3.024000
  1180          C    183     DT     C2   1180     0.5677      12.010000
  1181          O    183     DT     O2   1181    -0.5881         16.000000
  1182         C7    183     DT    C3'   1182     0.0713      9.994000
  1183         H1    183     DT    H3'   1183     0.0985      3.024000
  1184         CT    183     DT    C2'   1184    -0.0854      7.978000
  1185         HC    183     DT   H2'1   1185     0.0718      3.024000
  1186         HC    183     DT   H2'2   1186     0.0718      3.024000
  1187         OS    183     DT    O3'   1187    -0.5232         16.000000   ; qtot -36.31
; residue 184 DC  rtp DC   q -1.0
  1188          P    184     DC      P   1188     1.1659      30.970000
  1189         O2    184     DC    O1P   1189    -0.7761         16.000000
  1190         O2    184     DC    O2P   1190    -0.7761         16.000000
  1191         OS    184     DC    O5'   1191    -0.4954         16.000000
  1192         CJ    184     DC    C5'   1192    -0.0069      7.978000
  1193         H1    184     DC   H5'1   1193     0.0754      3.024000
  1194         H1    184     DC   H5'2   1194     0.0754      3.024000
  1195         CT    184     DC    C4'   1195     0.1629      9.994000
  1196         H1    184     DC    H4'   1196     0.1176      3.024000
  1197         OS    184     DC    O4'   1197    -0.3691         16.000000
  1198         CT    184     DC    C1'   1198    -0.0116      9.994000
  1199         H2    184     DC    H1'   1199     0.1963      3.024000
  1200         N*    184     DC     N1   1200    -0.0339      14.010000
  1201         C1    184     DC     C6   1201    -0.0183      9.994000
  1202         H4    184     DC     H6   1202     0.2293      3.024000
  1203         C1    184     DC     C5   1203    -0.5222      9.994000
  1204         HA    184     DC     H5   1204     0.1863      3.024000
  1205         CA    184     DC     C4   1205     0.8439      12.010000
  1206         N2    184     DC     N4   1206    -0.9773      9.978000
  1207          H    184     DC    H41   1207     0.4314      3.024000
  1208          H    184     DC    H42   1208     0.4314      3.024000
  1209         NC    184     DC     N3   1209    -0.7748      14.010000
  1210          C    184     DC     C2   1210     0.7959      12.010000
  1211          O    184     DC     O2   1211    -0.6548         16.000000
  1212         C7    184     DC    C3'   1212     0.0713      9.994000
  1213         H1    184     DC    H3'   1213     0.0985      3.024000
  1214         CT    184     DC    C2'   1214    -0.0854      7.978000
  1215         HC    184     DC   H2'1   1215     0.0718      3.024000
  1216         HC    184     DC   H2'2   1216     0.0718      3.024000
  1217         OS    184     DC    O3'   1217    -0.5232         16.000000   ; qtot -37.31
; residue 185 DC  rtp DC   q -1.0
  1218          P    185     DC      P   1218     1.1659      30.970000
  1219         O2    185     DC    O1P   1219    -0.7761         16.000000
  1220         O2    185     DC    O2P   1220    -0.7761         16.000000
  1221         OS    185     DC    O5'   1221    -0.4954         16.000000
  1222         CJ    185     DC    C5'   1222    -0.0069      7.978000
  1223         H1    185     DC   H5'1   1223     0.0754      3.024000
  1224         H1    185     DC   H5'2   1224     0.0754      3.024000
  1225         CT    185     DC    C4'   1225     0.1629      9.994000
  1226         H1    185     DC    H4'   1226     0.1176      3.024000
  1227         OS    185     DC    O4'   1227    -0.3691         16.000000
  1228         CT    185     DC    C1'   1228    -0.0116      9.994000
  1229         H2    185     DC    H1'   1229     0.1963      3.024000
  1230         N*    185     DC     N1   1230    -0.0339      14.010000
  1231         C1    185     DC     C6   1231    -0.0183      9.994000
  1232         H4    185     DC     H6   1232     0.2293      3.024000
  1233         C1    185     DC     C5   1233    -0.5222      9.994000
  1234         HA    185     DC     H5   1234     0.1863      3.024000
  1235         CA    185     DC     C4   1235     0.8439      12.010000
  1236         N2    185     DC     N4   1236    -0.9773      9.978000
  1237          H    185     DC    H41   1237     0.4314      3.024000
  1238          H    185     DC    H42   1238     0.4314      3.024000
  1239         NC    185     DC     N3   1239    -0.7748      14.010000
  1240          C    185     DC     C2   1240     0.7959      12.010000
  1241          O    185     DC     O2   1241    -0.6548         16.000000
  1242         C7    185     DC    C3'   1242     0.0713      9.994000
  1243         H1    185     DC    H3'   1243     0.0985      3.024000
  1244         CT    185     DC    C2'   1244    -0.0854      7.978000
  1245         HC    185     DC   H2'1   1245     0.0718      3.024000
  1246         HC    185     DC   H2'2   1246     0.0718      3.024000
  1247         OS    185     DC    O3'   1247    -0.5232         16.000000   ; qtot -38.31
; residue 186 DG  rtp DG   q -1.0
  1248          P    186     DG      P   1248     1.1659      30.970000
  1249         O2    186     DG    O1P   1249    -0.7761         16.000000
  1250         O2    186     DG    O2P   1250    -0.7761         16.000000
  1251         OS    186     DG    O5'   1251    -0.4954         16.000000
  1252         CJ    186     DG    C5'   1252    -0.0069      7.978000
  1253         H1    186     DG   H5'1   1253     0.0754      3.024000
  1254         H1    186     DG   H5'2   1254     0.0754      3.024000
  1255         CT    186     DG    C4'   1255     0.1629      9.994000
  1256         H1    186     DG    H4'   1256     0.1176      3.024000
  1257         OS    186     DG    O4'   1257    -0.3691         16.000000
  1258         CT    186     DG    C1'   1258     0.0358      9.994000
  1259         H2    186     DG    H1'   1259     0.1746      3.024000
  1260         N*    186     DG     N9   1260     0.0577      14.010000
  1261         CK    186     DG     C8   1261     0.0736      9.994000
  1262         H5    186     DG     H8   1262     0.1997      3.024000
  1263         NB    186     DG     N7   1263    -0.5725      14.010000
  1264         CB    186     DG     C5   1264     0.1991      12.010000
  1265          C    186     DG     C6   1265     0.4918      12.010000
  1266          O    186     DG     O6   1266    -0.5699         16.000000
  1267         NA    186     DG     N1   1267    -0.5053      11.994000
  1268          H    186     DG     H1   1268      0.352      3.024000
  1269         CA    186     DG     C2   1269     0.7432      12.010000
  1270         N2    186     DG     N2   1270     -0.923      9.978000
  1271          H    186     DG    H21   1271     0.4235      3.024000
  1272          H    186     DG    H22   1272     0.4235      3.024000
  1273         NC    186     DG     N3   1273    -0.6636      14.010000
  1274         CB    186     DG     C4   1274     0.1814      12.010000
  1275         C7    186     DG    C3'   1275     0.0713      9.994000
  1276         H1    186     DG    H3'   1276     0.0985      3.024000
  1277         CT    186     DG    C2'   1277    -0.0854      7.978000
  1278         HC    186     DG   H2'1   1278     0.0718      3.024000
  1279         HC    186     DG   H2'2   1279     0.0718      3.024000
  1280         OS    186     DG    O3'   1280    -0.5232         16.000000   ; qtot -39.31
; residue 187 DC  rtp DC   q -1.0
  1281          P    187     DC      P   1281     1.1659      30.970000
  1282         O2    187     DC    O1P   1282    -0.7761         16.000000
  1283         O2    187     DC    O2P   1283    -0.7761         16.000000
  1284         OS    187     DC    O5'   1284    -0.4954         16.000000
  1285         CJ    187     DC    C5'   1285    -0.0069      7.978000
  1286         H1    187     DC   H5'1   1286     0.0754      3.024000
  1287         H1    187     DC   H5'2   1287     0.0754      3.024000
  1288         CT    187     DC    C4'   1288     0.1629      9.994000
  1289         H1    187     DC    H4'   1289     0.1176      3.024000
  1290         OS    187     DC    O4'   1290    -0.3691         16.000000
  1291         CT    187     DC    C1'   1291    -0.0116      9.994000
  1292         H2    187     DC    H1'   1292     0.1963      3.024000
  1293         N*    187     DC     N1   1293    -0.0339      14.010000
  1294         C1    187     DC     C6   1294    -0.0183      9.994000
  1295         H4    187     DC     H6   1295     0.2293      3.024000
  1296         C1    187     DC     C5   1296    -0.5222      9.994000
  1297         HA    187     DC     H5   1297     0.1863      3.024000
  1298         CA    187     DC     C4   1298     0.8439      12.010000
  1299         N2    187     DC     N4   1299    -0.9773      9.978000
  1300          H    187     DC    H41   1300     0.4314      3.024000
  1301          H    187     DC    H42   1301     0.4314      3.024000
  1302         NC    187     DC     N3   1302    -0.7748      14.010000
  1303          C    187     DC     C2   1303     0.7959      12.010000
  1304          O    187     DC     O2   1304    -0.6548         16.000000
  1305         C7    187     DC    C3'   1305     0.0713      9.994000
  1306         H1    187     DC    H3'   1306     0.0985      3.024000
  1307         CT    187     DC    C2'   1307    -0.0854      7.978000
  1308         HC    187     DC   H2'1   1308     0.0718      3.024000
  1309         HC    187     DC   H2'2   1309     0.0718      3.024000
  1310         OS    187     DC    O3'   1310    -0.5232         16.000000   ; qtot -40.31
; residue 188 DT  rtp DT   q -1.0
  1311          P    188     DT      P   1311     1.1659      30.970000
  1312         O2    188     DT    O1P   1312    -0.7761         16.000000
  1313         O2    188     DT    O2P   1313    -0.7761         16.000000
  1314         OS    188     DT    O5'   1314    -0.4954         16.000000
  1315         CJ    188     DT    C5'   1315    -0.0069      7.978000
  1316         H1    188     DT   H5'1   1316     0.0754      3.024000
  1317         H1    188     DT   H5'2   1317     0.0754      3.024000
  1318         CT    188     DT    C4'   1318     0.1629      9.994000
  1319         H1    188     DT    H4'   1319     0.1176      3.024000
  1320         OS    188     DT    O4'   1320    -0.3691         16.000000
  1321         CT    188     DT    C1'   1321      0.068      9.994000
  1322         H2    188     DT    H1'   1322     0.1804      3.024000
  1323         N*    188     DT     N1   1323    -0.0239      14.010000
  1324         CM    188     DT     C6   1324    -0.2209      9.994000
  1325         H4    188     DT     H6   1325     0.2607      3.024000
  1326         CM    188     DT     C5   1326     0.0025      12.010000
  1327         CT    188     DT     C7   1327    -0.2269      5.962000
  1328         HC    188     DT    H71   1328      0.077      3.024000
  1329         HC    188     DT    H72   1329      0.077      3.024000
  1330         HC    188     DT    H73   1330      0.077      3.024000
  1331          C    188     DT     C4   1331     0.5194      12.010000
  1332          O    188     DT     O4   1332    -0.5563         16.000000
  1333         NA    188     DT     N3   1333     -0.434      11.994000
  1334          H    188     DT     H3   1334      0.342      3.024000
  1335          C    188     DT     C2   1335     0.5677      12.010000
  1336          O    188     DT     O2   1336    -0.5881         16.000000
  1337         C7    188     DT    C3'   1337     0.0713      9.994000
  1338         H1    188     DT    H3'   1338     0.0985      3.024000
  1339         CT    188     DT    C2'   1339    -0.0854      7.978000
  1340         HC    188     DT   H2'1   1340     0.0718      3.024000
  1341         HC    188     DT   H2'2   1341     0.0718      3.024000
  1342         OS    188     DT    O3'   1342    -0.5232         16.000000   ; qtot -41.31
; residue 189 DC  rtp DC   q -1.0
  1343          P    189     DC      P   1343     1.1659      30.970000
  1344         O2    189     DC    O1P   1344    -0.7761         16.000000
  1345         O2    189     DC    O2P   1345    -0.7761         16.000000
  1346         OS    189     DC    O5'   1346    -0.4954         16.000000
  1347         CJ    189     DC    C5'   1347    -0.0069      7.978000
  1348         H1    189     DC   H5'1   1348     0.0754      3.024000
  1349         H1    189     DC   H5'2   1349     0.0754      3.024000
  1350         CT    189     DC    C4'   1350     0.1629      9.994000
  1351         H1    189     DC    H4'   1351     0.1176      3.024000
  1352         OS    189     DC    O4'   1352    -0.3691         16.000000
  1353         CT    189     DC    C1'   1353    -0.0116      9.994000
  1354         H2    189     DC    H1'   1354     0.1963      3.024000
  1355         N*    189     DC     N1   1355    -0.0339      14.010000
  1356         C1    189     DC     C6   1356    -0.0183      9.994000
  1357         H4    189     DC     H6   1357     0.2293      3.024000
  1358         C1    189     DC     C5   1358    -0.5222      9.994000
  1359         HA    189     DC     H5   1359     0.1863      3.024000
  1360         CA    189     DC     C4   1360     0.8439      12.010000
  1361         N2    189     DC     N4   1361    -0.9773      9.978000
  1362          H    189     DC    H41   1362     0.4314      3.024000
  1363          H    189     DC    H42   1363     0.4314      3.024000
  1364         NC    189     DC     N3   1364    -0.7748      14.010000
  1365          C    189     DC     C2   1365     0.7959      12.010000
  1366          O    189     DC     O2   1366    -0.6548         16.000000
  1367         C7    189     DC    C3'   1367     0.0713      9.994000
  1368         H1    189     DC    H3'   1368     0.0985      3.024000
  1369         CT    189     DC    C2'   1369    -0.0854      7.978000
  1370         HC    189     DC   H2'1   1370     0.0718      3.024000
  1371         HC    189     DC   H2'2   1371     0.0718      3.024000
  1372         OS    189     DC    O3'   1372    -0.5232         16.000000   ; qtot -42.31
; residue 190 DC  rtp DC   q -1.0
  1373          P    190     DC      P   1373     1.1659      30.970000
  1374         O2    190     DC    O1P   1374    -0.7761         16.000000
  1375         O2    190     DC    O2P   1375    -0.7761         16.000000
  1376         OS    190     DC    O5'   1376    -0.4954         16.000000
  1377         CJ    190     DC    C5'   1377    -0.0069      7.978000
  1378         H1    190     DC   H5'1   1378     0.0754      3.024000
  1379         H1    190     DC   H5'2   1379     0.0754      3.024000
  1380         CT    190     DC    C4'   1380     0.1629      9.994000
  1381         H1    190     DC    H4'   1381     0.1176      3.024000
  1382         OS    190     DC    O4'   1382    -0.3691         16.000000
  1383         CT    190     DC    C1'   1383    -0.0116      9.994000
  1384         H2    190     DC    H1'   1384     0.1963      3.024000
  1385         N*    190     DC     N1   1385    -0.0339      14.010000
  1386         C1    190     DC     C6   1386    -0.0183      9.994000
  1387         H4    190     DC     H6   1387     0.2293      3.024000
  1388         C1    190     DC     C5   1388    -0.5222      9.994000
  1389         HA    190     DC     H5   1389     0.1863      3.024000
  1390         CA    190     DC     C4   1390     0.8439      12.010000
  1391         N2    190     DC     N4   1391    -0.9773      9.978000
  1392          H    190     DC    H41   1392     0.4314      3.024000
  1393          H    190     DC    H42   1393     0.4314      3.024000
  1394         NC    190     DC     N3   1394    -0.7748      14.010000
  1395          C    190     DC     C2   1395     0.7959      12.010000
  1396          O    190     DC     O2   1396    -0.6548         16.000000
  1397         C7    190     DC    C3'   1397     0.0713      9.994000
  1398         H1    190     DC    H3'   1398     0.0985      3.024000
  1399         CT    190     DC    C2'   1399    -0.0854      7.978000
  1400         HC    190     DC   H2'1   1400     0.0718      3.024000
  1401         HC    190     DC   H2'2   1401     0.0718      3.024000
  1402         OS    190     DC    O3'   1402    -0.5232         16.000000   ; qtot -43.31
; residue 191 DG  rtp DG   q -1.0
  1403          P    191     DG      P   1403     1.1659      30.970000
  1404         O2    191     DG    O1P   1404    -0.7761         16.000000
  1405         O2    191     DG    O2P   1405    -0.7761         16.000000
  1406         OS    191     DG    O5'   1406    -0.4954         16.000000
  1407         CJ    191     DG    C5'   1407    -0.0069      7.978000
  1408         H1    191     DG   H5'1   1408     0.0754      3.024000
  1409         H1    191     DG   H5'2   1409     0.0754      3.024000
  1410         CT    191     DG    C4'   1410     0.1629      9.994000
  1411         H1    191     DG    H4'   1411     0.1176      3.024000
  1412         OS    191     DG    O4'   1412    -0.3691         16.000000
  1413         CT    191     DG    C1'   1413     0.0358      9.994000
  1414         H2    191     DG    H1'   1414     0.1746      3.024000
  1415         N*    191     DG     N9   1415     0.0577      14.010000
  1416         CK    191     DG     C8   1416     0.0736      9.994000
  1417         H5    191     DG     H8   1417     0.1997      3.024000
  1418         NB    191     DG     N7   1418    -0.5725      14.010000
  1419         CB    191     DG     C5   1419     0.1991      12.010000
  1420          C    191     DG     C6   1420     0.4918      12.010000
  1421          O    191     DG     O6   1421    -0.5699         16.000000
  1422         NA    191     DG     N1   1422    -0.5053      11.994000
  1423          H    191     DG     H1   1423      0.352      3.024000
  1424         CA    191     DG     C2   1424     0.7432      12.010000
  1425         N2    191     DG     N2   1425     -0.923      9.978000
  1426          H    191     DG    H21   1426     0.4235      3.024000
  1427          H    191     DG    H22   1427     0.4235      3.024000
  1428         NC    191     DG     N3   1428    -0.6636      14.010000
  1429         CB    191     DG     C4   1429     0.1814      12.010000
  1430         C7    191     DG    C3'   1430     0.0713      9.994000
  1431         H1    191     DG    H3'   1431     0.0985      3.024000
  1432         CT    191     DG    C2'   1432    -0.0854      7.978000
  1433         HC    191     DG   H2'1   1433     0.0718      3.024000
  1434         HC    191     DG   H2'2   1434     0.0718      3.024000
  1435         OS    191     DG    O3'   1435    -0.5232         16.000000   ; qtot -44.31
; residue 192 DT  rtp DT   q -1.0
  1436          P    192     DT      P   1436     1.1659      30.970000
  1437         O2    192     DT    O1P   1437    -0.7761         16.000000
  1438         O2    192     DT    O2P   1438    -0.7761         16.000000
  1439         OS    192     DT    O5'   1439    -0.4954         16.000000
  1440         CJ    192     DT    C5'   1440    -0.0069      7.978000
  1441         H1    192     DT   H5'1   1441     0.0754      3.024000
  1442         H1    192     DT   H5'2   1442     0.0754      3.024000
  1443         CT    192     DT    C4'   1443     0.1629      9.994000
  1444         H1    192     DT    H4'   1444     0.1176      3.024000
  1445         OS    192     DT    O4'   1445    -0.3691         16.000000
  1446         CT    192     DT    C1'   1446      0.068      9.994000
  1447         H2    192     DT    H1'   1447     0.1804      3.024000
  1448         N*    192     DT     N1   1448    -0.0239      14.010000
  1449         CM    192     DT     C6   1449    -0.2209      9.994000
  1450         H4    192     DT     H6   1450     0.2607      3.024000
  1451         CM    192     DT     C5   1451     0.0025      12.010000
  1452         CT    192     DT     C7   1452    -0.2269      5.962000
  1453         HC    192     DT    H71   1453      0.077      3.024000
  1454         HC    192     DT    H72   1454      0.077      3.024000
  1455         HC    192     DT    H73   1455      0.077      3.024000
  1456          C    192     DT     C4   1456     0.5194      12.010000
  1457          O    192     DT     O4   1457    -0.5563         16.000000
  1458         NA    192     DT     N3   1458     -0.434      11.994000
  1459          H    192     DT     H3   1459      0.342      3.024000
  1460          C    192     DT     C2   1460     0.5677      12.010000
  1461          O    192     DT     O2   1461    -0.5881         16.000000
  1462         C7    192     DT    C3'   1462     0.0713      9.994000
  1463         H1    192     DT    H3'   1463     0.0985      3.024000
  1464         CT    192     DT    C2'   1464    -0.0854      7.978000
  1465         HC    192     DT   H2'1   1465     0.0718      3.024000
  1466         HC    192     DT   H2'2   1466     0.0718      3.024000
  1467         OS    192     DT    O3'   1467    -0.5232         16.000000   ; qtot -45.31
; residue 193 DA  rtp DA   q -1.0
  1468          P    193     DA      P   1468     1.1659      30.970000
  1469         O2    193     DA    O1P   1469    -0.7761         16.000000
  1470         O2    193     DA    O2P   1470    -0.7761         16.000000
  1471         OS    193     DA    O5'   1471    -0.4954         16.000000
  1472         CJ    193     DA    C5'   1472    -0.0069      7.978000
  1473         H1    193     DA   H5'1   1473     0.0754      3.024000
  1474         H1    193     DA   H5'2   1474     0.0754      3.024000
  1475         CT    193     DA    C4'   1475     0.1629      9.994000
  1476         H1    193     DA    H4'   1476     0.1176      3.024000
  1477         OS    193     DA    O4'   1477    -0.3691         16.000000
  1478         CT    193     DA    C1'   1478     0.0431      9.994000
  1479         H2    193     DA    H1'   1479     0.1838      3.024000
  1480         N*    193     DA     N9   1480    -0.0268      14.010000
  1481         C2    193     DA     C8   1481     0.1607      9.994000
  1482         H5    193     DA     H8   1482     0.1877      3.024000
  1483         NB    193     DA     N7   1483    -0.6175      14.010000
  1484         CB    193     DA     C5   1484     0.0725      12.010000
  1485         CA    193     DA     C6   1485     0.6897      12.010000
  1486         N2    193     DA     N6   1486    -0.9123      9.978000
  1487          H    193     DA    H61   1487     0.4167      3.024000
  1488          H    193     DA    H62   1488     0.4167      3.024000
  1489         NC    193     DA     N1   1489    -0.7624      14.010000
  1490         CQ    193     DA     C2   1490     0.5716      9.994000
  1491         H5    193     DA     H2   1491     0.0598      3.024000
  1492         NC    193     DA     N3   1492    -0.7417      14.010000
  1493         CB    193     DA     C4   1493       0.38      12.010000
  1494         C7    193     DA    C3'   1494     0.0713      9.994000
  1495         H1    193     DA    H3'   1495     0.0985      3.024000
  1496         CT    193     DA    C2'   1496    -0.0854      7.978000
  1497         HC    193     DA   H2'1   1497     0.0718      3.024000
  1498         HC    193     DA   H2'2   1498     0.0718      3.024000
  1499         OS    193     DA    O3'   1499    -0.5232         16.000000   ; qtot -46.31
; residue 194 DC  rtp DC   q -1.0
  1500          P    194     DC      P   1500     1.1659      30.970000
  1501         O2    194     DC    O1P   1501    -0.7761         16.000000
  1502         O2    194     DC    O2P   1502    -0.7761         16.000000
  1503         OS    194     DC    O5'   1503    -0.4954         16.000000
  1504         CJ    194     DC    C5'   1504    -0.0069      7.978000
  1505         H1    194     DC   H5'1   1505     0.0754      3.024000
  1506         H1    194     DC   H5'2   1506     0.0754      3.024000
  1507         CT    194     DC    C4'   1507     0.1629      9.994000
  1508         H1    194     DC    H4'   1508     0.1176      3.024000
  1509         OS    194     DC    O4'   1509    -0.3691         16.000000
  1510         CT    194     DC    C1'   1510    -0.0116      9.994000
  1511         H2    194     DC    H1'   1511     0.1963      3.024000
  1512         N*    194     DC     N1   1512    -0.0339      14.010000
  1513         C1    194     DC     C6   1513    -0.0183      9.994000
  1514         H4    194     DC     H6   1514     0.2293      3.024000
  1515         C1    194     DC     C5   1515    -0.5222      9.994000
  1516         HA    194     DC     H5   1516     0.1863      3.024000
  1517         CA    194     DC     C4   1517     0.8439      12.010000
  1518         N2    194     DC     N4   1518    -0.9773      9.978000
  1519          H    194     DC    H41   1519     0.4314      3.024000
  1520          H    194     DC    H42   1520     0.4314      3.024000
  1521         NC    194     DC     N3   1521    -0.7748      14.010000
  1522          C    194     DC     C2   1522     0.7959      12.010000
  1523          O    194     DC     O2   1523    -0.6548         16.000000
  1524         C7    194     DC    C3'   1524     0.0713      9.994000
  1525         H1    194     DC    H3'   1525     0.0985      3.024000
  1526         CT    194     DC    C2'   1526    -0.0854      7.978000
  1527         HC    194     DC   H2'1   1527     0.0718      3.024000
  1528         HC    194     DC   H2'2   1528     0.0718      3.024000
  1529         OS    194     DC    O3'   1529    -0.5232         16.000000   ; qtot -47.31
; residue 195 DC  rtp DC   q -1.0
  1530          P    195     DC      P   1530     1.1659      30.970000
  1531         O2    195     DC    O1P   1531    -0.7761         16.000000
  1532         O2    195     DC    O2P   1532    -0.7761         16.000000
  1533         OS    195     DC    O5'   1533    -0.4954         16.000000
  1534         CJ    195     DC    C5'   1534    -0.0069      7.978000
  1535         H1    195     DC   H5'1   1535     0.0754      3.024000
  1536         H1    195     DC   H5'2   1536     0.0754      3.024000
  1537         CT    195     DC    C4'   1537     0.1629      9.994000
  1538         H1    195     DC    H4'   1538     0.1176      3.024000
  1539         OS    195     DC    O4'   1539    -0.3691         16.000000
  1540         CT    195     DC    C1'   1540    -0.0116      9.994000
  1541         H2    195     DC    H1'   1541     0.1963      3.024000
  1542         N*    195     DC     N1   1542    -0.0339      14.010000
  1543         C1    195     DC     C6   1543    -0.0183      9.994000
  1544         H4    195     DC     H6   1544     0.2293      3.024000
  1545         C1    195     DC     C5   1545    -0.5222      9.994000
  1546         HA    195     DC     H5   1546     0.1863      3.024000
  1547         CA    195     DC     C4   1547     0.8439      12.010000
  1548         N2    195     DC     N4   1548    -0.9773      9.978000
  1549          H    195     DC    H41   1549     0.4314      3.024000
  1550          H    195     DC    H42   1550     0.4314      3.024000
  1551         NC    195     DC     N3   1551    -0.7748      14.010000
  1552          C    195     DC     C2   1552     0.7959      12.010000
  1553          O    195     DC     O2   1553    -0.6548         16.000000
  1554         C7    195     DC    C3'   1554     0.0713      9.994000
  1555         H1    195     DC    H3'   1555     0.0985      3.024000
  1556         CT    195     DC    C2'   1556    -0.0854      7.978000
  1557         HC    195     DC   H2'1   1557     0.0718      3.024000
  1558         HC    195     DC   H2'2   1558     0.0718      3.024000
  1559         OS    195     DC    O3'   1559    -0.5232         16.000000   ; qtot -48.31
; residue 196 DT  rtp DT   q -1.0
  1560          P    196     DT      P   1560     1.1659      30.970000
  1561         O2    196     DT    O1P   1561    -0.7761         16.000000
  1562         O2    196     DT    O2P   1562    -0.7761         16.000000
  1563         OS    196     DT    O5'   1563    -0.4954         16.000000
  1564         CJ    196     DT    C5'   1564    -0.0069      7.978000
  1565         H1    196     DT   H5'1   1565     0.0754      3.024000
  1566         H1    196     DT   H5'2   1566     0.0754      3.024000
  1567         CT    196     DT    C4'   1567     0.1629      9.994000
  1568         H1    196     DT    H4'   1568     0.1176      3.024000
  1569         OS    196     DT    O4'   1569    -0.3691         16.000000
  1570         CT    196     DT    C1'   1570      0.068      9.994000
  1571         H2    196     DT    H1'   1571     0.1804      3.024000
  1572         N*    196     DT     N1   1572    -0.0239      14.010000
  1573         CM    196     DT     C6   1573    -0.2209      9.994000
  1574         H4    196     DT     H6   1574     0.2607      3.024000
  1575         CM    196     DT     C5   1575     0.0025      12.010000
  1576         CT    196     DT     C7   1576    -0.2269      5.962000
  1577         HC    196     DT    H71   1577      0.077      3.024000
  1578         HC    196     DT    H72   1578      0.077      3.024000
  1579         HC    196     DT    H73   1579      0.077      3.024000
  1580          C    196     DT     C4   1580     0.5194      12.010000
  1581          O    196     DT     O4   1581    -0.5563         16.000000
  1582         NA    196     DT     N3   1582     -0.434      11.994000
  1583          H    196     DT     H3   1583      0.342      3.024000
  1584          C    196     DT     C2   1584     0.5677      12.010000
  1585          O    196     DT     O2   1585    -0.5881         16.000000
  1586         C7    196     DT    C3'   1586     0.0713      9.994000
  1587         H1    196     DT    H3'   1587     0.0985      3.024000
  1588         CT    196     DT    C2'   1588    -0.0854      7.978000
  1589         HC    196     DT   H2'1   1589     0.0718      3.024000
  1590         HC    196     DT   H2'2   1590     0.0718      3.024000
  1591         OS    196     DT    O3'   1591    -0.5232         16.000000   ; qtot -49.31
; residue 197 DC  rtp DC   q -1.0
  1592          P    197     DC      P   1592     1.1659      30.970000
  1593         O2    197     DC    O1P   1593    -0.7761         16.000000
  1594         O2    197     DC    O2P   1594    -0.7761         16.000000
  1595         OS    197     DC    O5'   1595    -0.4954         16.000000
  1596         CJ    197     DC    C5'   1596    -0.0069      7.978000
  1597         H1    197     DC   H5'1   1597     0.0754      3.024000
  1598         H1    197     DC   H5'2   1598     0.0754      3.024000
  1599         CT    197     DC    C4'   1599     0.1629      9.994000
  1600         H1    197     DC    H4'   1600     0.1176      3.024000
  1601         OS    197     DC    O4'   1601    -0.3691         16.000000
  1602         CT    197     DC    C1'   1602    -0.0116      9.994000
  1603         H2    197     DC    H1'   1603     0.1963      3.024000
  1604         N*    197     DC     N1   1604    -0.0339      14.010000
  1605         C1    197     DC     C6   1605    -0.0183      9.994000
  1606         H4    197     DC     H6   1606     0.2293      3.024000
  1607         C1    197     DC     C5   1607    -0.5222      9.994000
  1608         HA    197     DC     H5   1608     0.1863      3.024000
  1609         CA    197     DC     C4   1609     0.8439      12.010000
  1610         N2    197     DC     N4   1610    -0.9773      9.978000
  1611          H    197     DC    H41   1611     0.4314      3.024000
  1612          H    197     DC    H42   1612     0.4314      3.024000
  1613         NC    197     DC     N3   1613    -0.7748      14.010000
  1614          C    197     DC     C2   1614     0.7959      12.010000
  1615          O    197     DC     O2   1615    -0.6548         16.000000
  1616         C7    197     DC    C3'   1616     0.0713      9.994000
  1617         H1    197     DC    H3'   1617     0.0985      3.024000
  1618         CT    197     DC    C2'   1618    -0.0854      7.978000
  1619         HC    197     DC   H2'1   1619     0.0718      3.024000
  1620         HC    197     DC   H2'2   1620     0.0718      3.024000
  1621         OS    197     DC    O3'   1621    -0.5232         16.000000   ; qtot -50.31
; residue 198 DT  rtp DT   q -1.0
  1622          P    198     DT      P   1622     1.1659      30.970000
  1623         O2    198     DT    O1P   1623    -0.7761         16.000000
  1624         O2    198     DT    O2P   1624    -0.7761         16.000000
  1625         OS    198     DT    O5'   1625    -0.4954         16.000000
  1626         CJ    198     DT    C5'   1626    -0.0069      7.978000
  1627         H1    198     DT   H5'1   1627     0.0754      3.024000
  1628         H1    198     DT   H5'2   1628     0.0754      3.024000
  1629         CT    198     DT    C4'   1629     0.1629      9.994000
  1630         H1    198     DT    H4'   1630     0.1176      3.024000
  1631         OS    198     DT    O4'   1631    -0.3691         16.000000
  1632         CT    198     DT    C1'   1632      0.068      9.994000
  1633         H2    198     DT    H1'   1633     0.1804      3.024000
  1634         N*    198     DT     N1   1634    -0.0239      14.010000
  1635         CM    198     DT     C6   1635    -0.2209      9.994000
  1636         H4    198     DT     H6   1636     0.2607      3.024000
  1637         CM    198     DT     C5   1637     0.0025      12.010000
  1638         CT    198     DT     C7   1638    -0.2269      5.962000
  1639         HC    198     DT    H71   1639      0.077      3.024000
  1640         HC    198     DT    H72   1640      0.077      3.024000
  1641         HC    198     DT    H73   1641      0.077      3.024000
  1642          C    198     DT     C4   1642     0.5194      12.010000
  1643          O    198     DT     O4   1643    -0.5563         16.000000
  1644         NA    198     DT     N3   1644     -0.434      11.994000
  1645          H    198     DT     H3   1645      0.342      3.024000
  1646          C    198     DT     C2   1646     0.5677      12.010000
  1647          O    198     DT     O2   1647    -0.5881         16.000000
  1648         C7    198     DT    C3'   1648     0.0713      9.994000
  1649         H1    198     DT    H3'   1649     0.0985      3.024000
  1650         CT    198     DT    C2'   1650    -0.0854      7.978000
  1651         HC    198     DT   H2'1   1651     0.0718      3.024000
  1652         HC    198     DT   H2'2   1652     0.0718      3.024000
  1653         OS    198     DT    O3'   1653    -0.5232         16.000000   ; qtot -51.31
; residue 199 DC  rtp DC   q -1.0
  1654          P    199     DC      P   1654     1.1659      30.970000
  1655         O2    199     DC    O1P   1655    -0.7761         16.000000
  1656         O2    199     DC    O2P   1656    -0.7761         16.000000
  1657         OS    199     DC    O5'   1657    -0.4954         16.000000
  1658         CJ    199     DC    C5'   1658    -0.0069      7.978000
  1659         H1    199     DC   H5'1   1659     0.0754      3.024000
  1660         H1    199     DC   H5'2   1660     0.0754      3.024000
  1661         CT    199     DC    C4'   1661     0.1629      9.994000
  1662         H1    199     DC    H4'   1662     0.1176      3.024000
  1663         OS    199     DC    O4'   1663    -0.3691         16.000000
  1664         CT    199     DC    C1'   1664    -0.0116      9.994000
  1665         H2    199     DC    H1'   1665     0.1963      3.024000
  1666         N*    199     DC     N1   1666    -0.0339      14.010000
  1667         C1    199     DC     C6   1667    -0.0183      9.994000
  1668         H4    199     DC     H6   1668     0.2293      3.024000
  1669         C1    199     DC     C5   1669    -0.5222      9.994000
  1670         HA    199     DC     H5   1670     0.1863      3.024000
  1671         CA    199     DC     C4   1671     0.8439      12.010000
  1672         N2    199     DC     N4   1672    -0.9773      9.978000
  1673          H    199     DC    H41   1673     0.4314      3.024000
  1674          H    199     DC    H42   1674     0.4314      3.024000
  1675         NC    199     DC     N3   1675    -0.7748      14.010000
  1676          C    199     DC     C2   1676     0.7959      12.010000
  1677          O    199     DC     O2   1677    -0.6548         16.000000
  1678         C7    199     DC    C3'   1678     0.0713      9.994000
  1679         H1    199     DC    H3'   1679     0.0985      3.024000
  1680         CT    199     DC    C2'   1680    -0.0854      7.978000
  1681         HC    199     DC   H2'1   1681     0.0718      3.024000
  1682         HC    199     DC   H2'2   1682     0.0718      3.024000
  1683         OS    199     DC    O3'   1683    -0.5232         16.000000   ; qtot -52.31
; residue 200 DT  rtp DT   q -1.0
  1684          P    200     DT      P   1684     1.1659      30.970000
  1685         O2    200     DT    O1P   1685    -0.7761         16.000000
  1686         O2    200     DT    O2P   1686    -0.7761         16.000000
  1687         OS    200     DT    O5'   1687    -0.4954         16.000000
  1688         CJ    200     DT    C5'   1688    -0.0069      7.978000
  1689         H1    200     DT   H5'1   1689     0.0754      3.024000
  1690         H1    200     DT   H5'2   1690     0.0754      3.024000
  1691         CT    200     DT    C4'   1691     0.1629      9.994000
  1692         H1    200     DT    H4'   1692     0.1176      3.024000
  1693         OS    200     DT    O4'   1693    -0.3691         16.000000
  1694         CT    200     DT    C1'   1694      0.068      9.994000
  1695         H2    200     DT    H1'   1695     0.1804      3.024000
  1696         N*    200     DT     N1   1696    -0.0239      14.010000
  1697         CM    200     DT     C6   1697    -0.2209      9.994000
  1698         H4    200     DT     H6   1698     0.2607      3.024000
  1699         CM    200     DT     C5   1699     0.0025      12.010000
  1700         CT    200     DT     C7   1700    -0.2269      5.962000
  1701         HC    200     DT    H71   1701      0.077      3.024000
  1702         HC    200     DT    H72   1702      0.077      3.024000
  1703         HC    200     DT    H73   1703      0.077      3.024000
  1704          C    200     DT     C4   1704     0.5194      12.010000
  1705          O    200     DT     O4   1705    -0.5563         16.000000
  1706         NA    200     DT     N3   1706     -0.434      11.994000
  1707          H    200     DT     H3   1707      0.342      3.024000
  1708          C    200     DT     C2   1708     0.5677      12.010000
  1709          O    200     DT     O2   1709    -0.5881         16.000000
  1710         C7    200     DT    C3'   1710     0.0713      9.994000
  1711         H1    200     DT    H3'   1711     0.0985      3.024000
  1712         CT    200     DT    C2'   1712    -0.0854      7.978000
  1713         HC    200     DT   H2'1   1713     0.0718      3.024000
  1714         HC    200     DT   H2'2   1714     0.0718      3.024000
  1715         OS    200     DT    O3'   1715    -0.5232         16.000000   ; qtot -53.31
; residue 201 DC  rtp DC   q -1.0
  1716          P    201     DC      P   1716     1.1659      30.970000
  1717         O2    201     DC    O1P   1717    -0.7761         16.000000
  1718         O2    201     DC    O2P   1718    -0.7761         16.000000
  1719         OS    201     DC    O5'   1719    -0.4954         16.000000
  1720         CJ    201     DC    C5'   1720    -0.0069      7.978000
  1721         H1    201     DC   H5'1   1721     0.0754      3.024000
  1722         H1    201     DC   H5'2   1722     0.0754      3.024000
  1723         CT    201     DC    C4'   1723     0.1629      9.994000
  1724         H1    201     DC    H4'   1724     0.1176      3.024000
  1725         OS    201     DC    O4'   1725    -0.3691         16.000000
  1726         CT    201     DC    C1'   1726    -0.0116      9.994000
  1727         H2    201     DC    H1'   1727     0.1963      3.024000
  1728         N*    201     DC     N1   1728    -0.0339      14.010000
  1729         C1    201     DC     C6   1729    -0.0183      9.994000
  1730         H4    201     DC     H6   1730     0.2293      3.024000
  1731         C1    201     DC     C5   1731    -0.5222      9.994000
  1732         HA    201     DC     H5   1732     0.1863      3.024000
  1733         CA    201     DC     C4   1733     0.8439      12.010000
  1734         N2    201     DC     N4   1734    -0.9773      9.978000
  1735          H    201     DC    H41   1735     0.4314      3.024000
  1736          H    201     DC    H42   1736     0.4314      3.024000
  1737         NC    201     DC     N3   1737    -0.7748      14.010000
  1738          C    201     DC     C2   1738     0.7959      12.010000
  1739          O    201     DC     O2   1739    -0.6548         16.000000
  1740         C7    201     DC    C3'   1740     0.0713      9.994000
  1741         H1    201     DC    H3'   1741     0.0985      3.024000
  1742         CT    201     DC    C2'   1742    -0.0854      7.978000
  1743         HC    201     DC   H2'1   1743     0.0718      3.024000
  1744         HC    201     DC   H2'2   1744     0.0718      3.024000
  1745         OS    201     DC    O3'   1745    -0.5232         16.000000   ; qtot -54.31
; residue 202 DC  rtp DC   q -1.0
  1746          P    202     DC      P   1746     1.1659      30.970000
  1747         O2    202     DC    O1P   1747    -0.7761         16.000000
  1748         O2    202     DC    O2P   1748    -0.7761         16.000000
  1749         OS    202     DC    O5'   1749    -0.4954         16.000000
  1750         CJ    202     DC    C5'   1750    -0.0069      7.978000
  1751         H1    202     DC   H5'1   1751     0.0754      3.024000
  1752         H1    202     DC   H5'2   1752     0.0754      3.024000
  1753         CT    202     DC    C4'   1753     0.1629      9.994000
  1754         H1    202     DC    H4'   1754     0.1176      3.024000
  1755         OS    202     DC    O4'   1755    -0.3691         16.000000
  1756         CT    202     DC    C1'   1756    -0.0116      9.994000
  1757         H2    202     DC    H1'   1757     0.1963      3.024000
  1758         N*    202     DC     N1   1758    -0.0339      14.010000
  1759         C1    202     DC     C6   1759    -0.0183      9.994000
  1760         H4    202     DC     H6   1760     0.2293      3.024000
  1761         C1    202     DC     C5   1761    -0.5222      9.994000
  1762         HA    202     DC     H5   1762     0.1863      3.024000
  1763         CA    202     DC     C4   1763     0.8439      12.010000
  1764         N2    202     DC     N4   1764    -0.9773      9.978000
  1765          H    202     DC    H41   1765     0.4314      3.024000
  1766          H    202     DC    H42   1766     0.4314      3.024000
  1767         NC    202     DC     N3   1767    -0.7748      14.010000
  1768          C    202     DC     C2   1768     0.7959      12.010000
  1769          O    202     DC     O2   1769    -0.6548         16.000000
  1770         C7    202     DC    C3'   1770     0.0713      9.994000
  1771         H1    202     DC    H3'   1771     0.0985      3.024000
  1772         CT    202     DC    C2'   1772    -0.0854      7.978000
  1773         HC    202     DC   H2'1   1773     0.0718      3.024000
  1774         HC    202     DC   H2'2   1774     0.0718      3.024000
  1775         OS    202     DC    O3'   1775    -0.5232         16.000000   ; qtot -55.31
; residue 203 DC  rtp DC   q -1.0
  1776          P    203     DC      P   1776     1.1659      30.970000
  1777         O2    203     DC    O1P   1777    -0.7761         16.000000
  1778         O2    203     DC    O2P   1778    -0.7761         16.000000
  1779         OS    203     DC    O5'   1779    -0.4954         16.000000
  1780         CJ    203     DC    C5'   1780    -0.0069      7.978000
  1781         H1    203     DC   H5'1   1781     0.0754      3.024000
  1782         H1    203     DC   H5'2   1782     0.0754      3.024000
  1783         CT    203     DC    C4'   1783     0.1629      9.994000
  1784         H1    203     DC    H4'   1784     0.1176      3.024000
  1785         OS    203     DC    O4'   1785    -0.3691         16.000000
  1786         CT    203     DC    C1'   1786    -0.0116      9.994000
  1787         H2    203     DC    H1'   1787     0.1963      3.024000
  1788         N*    203     DC     N1   1788    -0.0339      14.010000
  1789         C1    203     DC     C6   1789    -0.0183      9.994000
  1790         H4    203     DC     H6   1790     0.2293      3.024000
  1791         C1    203     DC     C5   1791    -0.5222      9.994000
  1792         HA    203     DC     H5   1792     0.1863      3.024000
  1793         CA    203     DC     C4   1793     0.8439      12.010000
  1794         N2    203     DC     N4   1794    -0.9773      9.978000
  1795          H    203     DC    H41   1795     0.4314      3.024000
  1796          H    203     DC    H42   1796     0.4314      3.024000
  1797         NC    203     DC     N3   1797    -0.7748      14.010000
  1798          C    203     DC     C2   1798     0.7959      12.010000
  1799          O    203     DC     O2   1799    -0.6548         16.000000
  1800         C7    203     DC    C3'   1800     0.0713      9.994000
  1801         H1    203     DC    H3'   1801     0.0985      3.024000
  1802         CT    203     DC    C2'   1802    -0.0854      7.978000
  1803         HC    203     DC   H2'1   1803     0.0718      3.024000
  1804         HC    203     DC   H2'2   1804     0.0718      3.024000
  1805         OS    203     DC    O3'   1805    -0.5232         16.000000   ; qtot -56.31
; residue 204 DG  rtp DG   q -1.0
  1806          P    204     DG      P   1806     1.1659      30.970000
  1807         O2    204     DG    O1P   1807    -0.7761         16.000000
  1808         O2    204     DG    O2P   1808    -0.7761         16.000000
  1809         OS    204     DG    O5'   1809    -0.4954         16.000000
  1810         CJ    204     DG    C5'   1810    -0.0069      7.978000
  1811         H1    204     DG   H5'1   1811     0.0754      3.024000
  1812         H1    204     DG   H5'2   1812     0.0754      3.024000
  1813         CT    204     DG    C4'   1813     0.1629      9.994000
  1814         H1    204     DG    H4'   1814     0.1176      3.024000
  1815         OS    204     DG    O4'   1815    -0.3691         16.000000
  1816         CT    204     DG    C1'   1816     0.0358      9.994000
  1817         H2    204     DG    H1'   1817     0.1746      3.024000
  1818         N*    204     DG     N9   1818     0.0577      14.010000
  1819         CK    204     DG     C8   1819     0.0736      9.994000
  1820         H5    204     DG     H8   1820     0.1997      3.024000
  1821         NB    204     DG     N7   1821    -0.5725      14.010000
  1822         CB    204     DG     C5   1822     0.1991      12.010000
  1823          C    204     DG     C6   1823     0.4918      12.010000
  1824          O    204     DG     O6   1824    -0.5699         16.000000
  1825         NA    204     DG     N1   1825    -0.5053      11.994000
  1826          H    204     DG     H1   1826      0.352      3.024000
  1827         CA    204     DG     C2   1827     0.7432      12.010000
  1828         N2    204     DG     N2   1828     -0.923      9.978000
  1829          H    204     DG    H21   1829     0.4235      3.024000
  1830          H    204     DG    H22   1830     0.4235      3.024000
  1831         NC    204     DG     N3   1831    -0.6636      14.010000
  1832         CB    204     DG     C4   1832     0.1814      12.010000
  1833         C7    204     DG    C3'   1833     0.0713      9.994000
  1834         H1    204     DG    H3'   1834     0.0985      3.024000
  1835         CT    204     DG    C2'   1835    -0.0854      7.978000
  1836         HC    204     DG   H2'1   1836     0.0718      3.024000
  1837         HC    204     DG   H2'2   1837     0.0718      3.024000
  1838         OS    204     DG    O3'   1838    -0.5232         16.000000   ; qtot -57.31
; residue 205 DC  rtp DC   q -1.0
  1839          P    205     DC      P   1839     1.1659      30.970000
  1840         O2    205     DC    O1P   1840    -0.7761         16.000000
  1841         O2    205     DC    O2P   1841    -0.7761         16.000000
  1842         OS    205     DC    O5'   1842    -0.4954         16.000000
  1843         CJ    205     DC    C5'   1843    -0.0069      7.978000
  1844         H1    205     DC   H5'1   1844     0.0754      3.024000
  1845         H1    205     DC   H5'2   1845     0.0754      3.024000
  1846         CT    205     DC    C4'   1846     0.1629      9.994000
  1847         H1    205     DC    H4'   1847     0.1176      3.024000
  1848         OS    205     DC    O4'   1848    -0.3691         16.000000
  1849         CT    205     DC    C1'   1849    -0.0116      9.994000
  1850         H2    205     DC    H1'   1850     0.1963      3.024000
  1851         N*    205     DC     N1   1851    -0.0339      14.010000
  1852         C1    205     DC     C6   1852    -0.0183      9.994000
  1853         H4    205     DC     H6   1853     0.2293      3.024000
  1854         C1    205     DC     C5   1854    -0.5222      9.994000
  1855         HA    205     DC     H5   1855     0.1863      3.024000
  1856         CA    205     DC     C4   1856     0.8439      12.010000
  1857         N2    205     DC     N4   1857    -0.9773      9.978000
  1858          H    205     DC    H41   1858     0.4314      3.024000
  1859          H    205     DC    H42   1859     0.4314      3.024000
  1860         NC    205     DC     N3   1860    -0.7748      14.010000
  1861          C    205     DC     C2   1861     0.7959      12.010000
  1862          O    205     DC     O2   1862    -0.6548         16.000000
  1863         C7    205     DC    C3'   1863     0.0713      9.994000
  1864         H1    205     DC    H3'   1864     0.0985      3.024000
  1865         CT    205     DC    C2'   1865    -0.0854      7.978000
  1866         HC    205     DC   H2'1   1866     0.0718      3.024000
  1867         HC    205     DC   H2'2   1867     0.0718      3.024000
  1868         OS    205     DC    O3'   1868    -0.5232         16.000000   ; qtot -58.31
; residue 206 DA  rtp DA   q -1.0
  1869          P    206     DA      P   1869     1.1659      30.970000
  1870         O2    206     DA    O1P   1870    -0.7761         16.000000
  1871         O2    206     DA    O2P   1871    -0.7761         16.000000
  1872         OS    206     DA    O5'   1872    -0.4954         16.000000
  1873         CJ    206     DA    C5'   1873    -0.0069      7.978000
  1874         H1    206     DA   H5'1   1874     0.0754      3.024000
  1875         H1    206     DA   H5'2   1875     0.0754      3.024000
  1876         CT    206     DA    C4'   1876     0.1629      9.994000
  1877         H1    206     DA    H4'   1877     0.1176      3.024000
  1878         OS    206     DA    O4'   1878    -0.3691         16.000000
  1879         CT    206     DA    C1'   1879     0.0431      9.994000
  1880         H2    206     DA    H1'   1880     0.1838      3.024000
  1881         N*    206     DA     N9   1881    -0.0268      14.010000
  1882         C2    206     DA     C8   1882     0.1607      9.994000
  1883         H5    206     DA     H8   1883     0.1877      3.024000
  1884         NB    206     DA     N7   1884    -0.6175      14.010000
  1885         CB    206     DA     C5   1885     0.0725      12.010000
  1886         CA    206     DA     C6   1886     0.6897      12.010000
  1887         N2    206     DA     N6   1887    -0.9123      9.978000
  1888          H    206     DA    H61   1888     0.4167      3.024000
  1889          H    206     DA    H62   1889     0.4167      3.024000
  1890         NC    206     DA     N1   1890    -0.7624      14.010000
  1891         CQ    206     DA     C2   1891     0.5716      9.994000
  1892         H5    206     DA     H2   1892     0.0598      3.024000
  1893         NC    206     DA     N3   1893    -0.7417      14.010000
  1894         CB    206     DA     C4   1894       0.38      12.010000
  1895         C7    206     DA    C3'   1895     0.0713      9.994000
  1896         H1    206     DA    H3'   1896     0.0985      3.024000
  1897         CT    206     DA    C2'   1897    -0.0854      7.978000
  1898         HC    206     DA   H2'1   1898     0.0718      3.024000
  1899         HC    206     DA   H2'2   1899     0.0718      3.024000
  1900         OS    206     DA    O3'   1900    -0.5232         16.000000   ; qtot -59.31
; residue 207 DC  rtp DC   q -1.0
  1901          P    207     DC      P   1901     1.1659      30.970000
  1902         O2    207     DC    O1P   1902    -0.7761         16.000000
  1903         O2    207     DC    O2P   1903    -0.7761         16.000000
  1904         OS    207     DC    O5'   1904    -0.4954         16.000000
  1905         CJ    207     DC    C5'   1905    -0.0069      7.978000
  1906         H1    207     DC   H5'1   1906     0.0754      3.024000
  1907         H1    207     DC   H5'2   1907     0.0754      3.024000
  1908         CT    207     DC    C4'   1908     0.1629      9.994000
  1909         H1    207     DC    H4'   1909     0.1176      3.024000
  1910         OS    207     DC    O4'   1910    -0.3691         16.000000
  1911         CT    207     DC    C1'   1911    -0.0116      9.994000
  1912         H2    207     DC    H1'   1912     0.1963      3.024000
  1913         N*    207     DC     N1   1913    -0.0339      14.010000
  1914         C1    207     DC     C6   1914    -0.0183      9.994000
  1915         H4    207     DC     H6   1915     0.2293      3.024000
  1916         C1    207     DC     C5   1916    -0.5222      9.994000
  1917         HA    207     DC     H5   1917     0.1863      3.024000
  1918         CA    207     DC     C4   1918     0.8439      12.010000
  1919         N2    207     DC     N4   1919    -0.9773      9.978000
  1920          H    207     DC    H41   1920     0.4314      3.024000
  1921          H    207     DC    H42   1921     0.4314      3.024000
  1922         NC    207     DC     N3   1922    -0.7748      14.010000
  1923          C    207     DC     C2   1923     0.7959      12.010000
  1924          O    207     DC     O2   1924    -0.6548         16.000000
  1925         C7    207     DC    C3'   1925     0.0713      9.994000
  1926         H1    207     DC    H3'   1926     0.0985      3.024000
  1927         CT    207     DC    C2'   1927    -0.0854      7.978000
  1928         HC    207     DC   H2'1   1928     0.0718      3.024000
  1929         HC    207     DC   H2'2   1929     0.0718      3.024000
  1930         OS    207     DC    O3'   1930    -0.5232         16.000000   ; qtot -60.31
; residue 208 DC  rtp DC   q -1.0
  1931          P    208     DC      P   1931     1.1659      30.970000
  1932         O2    208     DC    O1P   1932    -0.7761         16.000000
  1933         O2    208     DC    O2P   1933    -0.7761         16.000000
  1934         OS    208     DC    O5'   1934    -0.4954         16.000000
  1935         CJ    208     DC    C5'   1935    -0.0069      7.978000
  1936         H1    208     DC   H5'1   1936     0.0754      3.024000
  1937         H1    208     DC   H5'2   1937     0.0754      3.024000
  1938         CT    208     DC    C4'   1938     0.1629      9.994000
  1939         H1    208     DC    H4'   1939     0.1176      3.024000
  1940         OS    208     DC    O4'   1940    -0.3691         16.000000
  1941         CT    208     DC    C1'   1941    -0.0116      9.994000
  1942         H2    208     DC    H1'   1942     0.1963      3.024000
  1943         N*    208     DC     N1   1943    -0.0339      14.010000
  1944         C1    208     DC     C6   1944    -0.0183      9.994000
  1945         H4    208     DC     H6   1945     0.2293      3.024000
  1946         C1    208     DC     C5   1946    -0.5222      9.994000
  1947         HA    208     DC     H5   1947     0.1863      3.024000
  1948         CA    208     DC     C4   1948     0.8439      12.010000
  1949         N2    208     DC     N4   1949    -0.9773      9.978000
  1950          H    208     DC    H41   1950     0.4314      3.024000
  1951          H    208     DC    H42   1951     0.4314      3.024000
  1952         NC    208     DC     N3   1952    -0.7748      14.010000
  1953          C    208     DC     C2   1953     0.7959      12.010000
  1954          O    208     DC     O2   1954    -0.6548         16.000000
  1955         C7    208     DC    C3'   1955     0.0713      9.994000
  1956         H1    208     DC    H3'   1956     0.0985      3.024000
  1957         CT    208     DC    C2'   1957    -0.0854      7.978000
  1958         HC    208     DC   H2'1   1958     0.0718      3.024000
  1959         HC    208     DC   H2'2   1959     0.0718      3.024000
  1960         OS    208     DC    O3'   1960    -0.5232         16.000000   ; qtot -61.31
; residue 209 DT  rtp DT   q -1.0
  1961          P    209     DT      P   1961     1.1659      30.970000
  1962         O2    209     DT    O1P   1962    -0.7761         16.000000
  1963         O2    209     DT    O2P   1963    -0.7761         16.000000
  1964         OS    209     DT    O5'   1964    -0.4954         16.000000
  1965         CJ    209     DT    C5'   1965    -0.0069      7.978000
  1966         H1    209     DT   H5'1   1966     0.0754      3.024000
  1967         H1    209     DT   H5'2   1967     0.0754      3.024000
  1968         CT    209     DT    C4'   1968     0.1629      9.994000
  1969         H1    209     DT    H4'   1969     0.1176      3.024000
  1970         OS    209     DT    O4'   1970    -0.3691         16.000000
  1971         CT    209     DT    C1'   1971      0.068      9.994000
  1972         H2    209     DT    H1'   1972     0.1804      3.024000
  1973         N*    209     DT     N1   1973    -0.0239      14.010000
  1974         CM    209     DT     C6   1974    -0.2209      9.994000
  1975         H4    209     DT     H6   1975     0.2607      3.024000
  1976         CM    209     DT     C5   1976     0.0025      12.010000
  1977         CT    209     DT     C7   1977    -0.2269      5.962000
  1978         HC    209     DT    H71   1978      0.077      3.024000
  1979         HC    209     DT    H72   1979      0.077      3.024000
  1980         HC    209     DT    H73   1980      0.077      3.024000
  1981          C    209     DT     C4   1981     0.5194      12.010000
  1982          O    209     DT     O4   1982    -0.5563         16.000000
  1983         NA    209     DT     N3   1983     -0.434      11.994000
  1984          H    209     DT     H3   1984      0.342      3.024000
  1985          C    209     DT     C2   1985     0.5677      12.010000
  1986          O    209     DT     O2   1986    -0.5881         16.000000
  1987         C7    209     DT    C3'   1987     0.0713      9.994000
  1988         H1    209     DT    H3'   1988     0.0985      3.024000
  1989         CT    209     DT    C2'   1989    -0.0854      7.978000
  1990         HC    209     DT   H2'1   1990     0.0718      3.024000
  1991         HC    209     DT   H2'2   1991     0.0718      3.024000
  1992         OS    209     DT    O3'   1992    -0.5232         16.000000   ; qtot -62.31
; residue 210 DG  rtp DG   q -1.0
  1993          P    210     DG      P   1993     1.1659      30.970000
  1994         O2    210     DG    O1P   1994    -0.7761         16.000000
  1995         O2    210     DG    O2P   1995    -0.7761         16.000000
  1996         OS    210     DG    O5'   1996    -0.4954         16.000000
  1997         CJ    210     DG    C5'   1997    -0.0069      7.978000
  1998         H1    210     DG   H5'1   1998     0.0754      3.024000
  1999         H1    210     DG   H5'2   1999     0.0754      3.024000
  2000         CT    210     DG    C4'   2000     0.1629      9.994000
  2001         H1    210     DG    H4'   2001     0.1176      3.024000
  2002         OS    210     DG    O4'   2002    -0.3691         16.000000
  2003         CT    210     DG    C1'   2003     0.0358      9.994000
  2004         H2    210     DG    H1'   2004     0.1746      3.024000
  2005         N*    210     DG     N9   2005     0.0577      14.010000
  2006         CK    210     DG     C8   2006     0.0736      9.994000
  2007         H5    210     DG     H8   2007     0.1997      3.024000
  2008         NB    210     DG     N7   2008    -0.5725      14.010000
  2009         CB    210     DG     C5   2009     0.1991      12.010000
  2010          C    210     DG     C6   2010     0.4918      12.010000
  2011          O    210     DG     O6   2011    -0.5699         16.000000
  2012         NA    210     DG     N1   2012    -0.5053      11.994000
  2013          H    210     DG     H1   2013      0.352      3.024000
  2014         CA    210     DG     C2   2014     0.7432      12.010000
  2015         N2    210     DG     N2   2015     -0.923      9.978000
  2016          H    210     DG    H21   2016     0.4235      3.024000
  2017          H    210     DG    H22   2017     0.4235      3.024000
  2018         NC    210     DG     N3   2018    -0.6636      14.010000
  2019         CB    210     DG     C4   2019     0.1814      12.010000
  2020         C7    210     DG    C3'   2020     0.0713      9.994000
  2021         H1    210     DG    H3'   2021     0.0985      3.024000
  2022         CT    210     DG    C2'   2022    -0.0854      7.978000
  2023         HC    210     DG   H2'1   2023     0.0718      3.024000
  2024         HC    210     DG   H2'2   2024     0.0718      3.024000
  2025         OS    210     DG    O3'   2025    -0.5232         16.000000   ; qtot -63.31
; residue 211 DG  rtp DG   q -1.0
  2026          P    211     DG      P   2026     1.1659      30.970000
  2027         O2    211     DG    O1P   2027    -0.7761         16.000000
  2028         O2    211     DG    O2P   2028    -0.7761         16.000000
  2029         OS    211     DG    O5'   2029    -0.4954         16.000000
  2030         CJ    211     DG    C5'   2030    -0.0069      7.978000
  2031         H1    211     DG   H5'1   2031     0.0754      3.024000
  2032         H1    211     DG   H5'2   2032     0.0754      3.024000
  2033         CT    211     DG    C4'   2033     0.1629      9.994000
  2034         H1    211     DG    H4'   2034     0.1176      3.024000
  2035         OS    211     DG    O4'   2035    -0.3691         16.000000
  2036         CT    211     DG    C1'   2036     0.0358      9.994000
  2037         H2    211     DG    H1'   2037     0.1746      3.024000
  2038         N*    211     DG     N9   2038     0.0577      14.010000
  2039         CK    211     DG     C8   2039     0.0736      9.994000
  2040         H5    211     DG     H8   2040     0.1997      3.024000
  2041         NB    211     DG     N7   2041    -0.5725      14.010000
  2042         CB    211     DG     C5   2042     0.1991      12.010000
  2043          C    211     DG     C6   2043     0.4918      12.010000
  2044          O    211     DG     O6   2044    -0.5699         16.000000
  2045         NA    211     DG     N1   2045    -0.5053      11.994000
  2046          H    211     DG     H1   2046      0.352      3.024000
  2047         CA    211     DG     C2   2047     0.7432      12.010000
  2048         N2    211     DG     N2   2048     -0.923      9.978000
  2049          H    211     DG    H21   2049     0.4235      3.024000
  2050          H    211     DG    H22   2050     0.4235      3.024000
  2051         NC    211     DG     N3   2051    -0.6636      14.010000
  2052         CB    211     DG     C4   2052     0.1814      12.010000
  2053         C7    211     DG    C3'   2053     0.0713      9.994000
  2054         H1    211     DG    H3'   2054     0.0985      3.024000
  2055         CT    211     DG    C2'   2055    -0.0854      7.978000
  2056         HC    211     DG   H2'1   2056     0.0718      3.024000
  2057         HC    211     DG   H2'2   2057     0.0718      3.024000
  2058         OS    211     DG    O3'   2058    -0.5232         16.000000   ; qtot -64.31
; residue 212 DG  rtp DG   q -1.0
  2059          P    212     DG      P   2059     1.1659      30.970000
  2060         O2    212     DG    O1P   2060    -0.7761         16.000000
  2061         O2    212     DG    O2P   2061    -0.7761         16.000000
  2062         OS    212     DG    O5'   2062    -0.4954         16.000000
  2063         CJ    212     DG    C5'   2063    -0.0069      7.978000
  2064         H1    212     DG   H5'1   2064     0.0754      3.024000
  2065         H1    212     DG   H5'2   2065     0.0754      3.024000
  2066         CT    212     DG    C4'   2066     0.1629      9.994000
  2067         H1    212     DG    H4'   2067     0.1176      3.024000
  2068         OS    212     DG    O4'   2068    -0.3691         16.000000
  2069         CT    212     DG    C1'   2069     0.0358      9.994000
  2070         H2    212     DG    H1'   2070     0.1746      3.024000
  2071         N*    212     DG     N9   2071     0.0577      14.010000
  2072         CK    212     DG     C8   2072     0.0736      9.994000
  2073         H5    212     DG     H8   2073     0.1997      3.024000
  2074         NB    212     DG     N7   2074    -0.5725      14.010000
  2075         CB    212     DG     C5   2075     0.1991      12.010000
  2076          C    212     DG     C6   2076     0.4918      12.010000
  2077          O    212     DG     O6   2077    -0.5699         16.000000
  2078         NA    212     DG     N1   2078    -0.5053      11.994000
  2079          H    212     DG     H1   2079      0.352      3.024000
  2080         CA    212     DG     C2   2080     0.7432      12.010000
  2081         N2    212     DG     N2   2081     -0.923      9.978000
  2082          H    212     DG    H21   2082     0.4235      3.024000
  2083          H    212     DG    H22   2083     0.4235      3.024000
  2084         NC    212     DG     N3   2084    -0.6636      14.010000
  2085         CB    212     DG     C4   2085     0.1814      12.010000
  2086         C7    212     DG    C3'   2086     0.0713      9.994000
  2087         H1    212     DG    H3'   2087     0.0985      3.024000
  2088         CT    212     DG    C2'   2088    -0.0854      7.978000
  2089         HC    212     DG   H2'1   2089     0.0718      3.024000
  2090         HC    212     DG   H2'2   2090     0.0718      3.024000
  2091         OS    212     DG    O3'   2091    -0.5232         16.000000   ; qtot -65.31
; residue 213 DA  rtp DA   q -1.0
  2092          P    213     DA      P   2092     1.1659      30.970000
  2093         O2    213     DA    O1P   2093    -0.7761         16.000000
  2094         O2    213     DA    O2P   2094    -0.7761         16.000000
  2095         OS    213     DA    O5'   2095    -0.4954         16.000000
  2096         CJ    213     DA    C5'   2096    -0.0069      7.978000
  2097         H1    213     DA   H5'1   2097     0.0754      3.024000
  2098         H1    213     DA   H5'2   2098     0.0754      3.024000
  2099         CT    213     DA    C4'   2099     0.1629      9.994000
  2100         H1    213     DA    H4'   2100     0.1176      3.024000
  2101         OS    213     DA    O4'   2101    -0.3691         16.000000
  2102         CT    213     DA    C1'   2102     0.0431      9.994000
  2103         H2    213     DA    H1'   2103     0.1838      3.024000
  2104         N*    213     DA     N9   2104    -0.0268      14.010000
  2105         C2    213     DA     C8   2105     0.1607      9.994000
  2106         H5    213     DA     H8   2106     0.1877      3.024000
  2107         NB    213     DA     N7   2107    -0.6175      14.010000
  2108         CB    213     DA     C5   2108     0.0725      12.010000
  2109         CA    213     DA     C6   2109     0.6897      12.010000
  2110         N2    213     DA     N6   2110    -0.9123      9.978000
  2111          H    213     DA    H61   2111     0.4167      3.024000
  2112          H    213     DA    H62   2112     0.4167      3.024000
  2113         NC    213     DA     N1   2113    -0.7624      14.010000
  2114         CQ    213     DA     C2   2114     0.5716      9.994000
  2115         H5    213     DA     H2   2115     0.0598      3.024000
  2116         NC    213     DA     N3   2116    -0.7417      14.010000
  2117         CB    213     DA     C4   2117       0.38      12.010000
  2118         C7    213     DA    C3'   2118     0.0713      9.994000
  2119         H1    213     DA    H3'   2119     0.0985      3.024000
  2120         CT    213     DA    C2'   2120    -0.0854      7.978000
  2121         HC    213     DA   H2'1   2121     0.0718      3.024000
  2122         HC    213     DA   H2'2   2122     0.0718      3.024000
  2123         OS    213     DA    O3'   2123    -0.5232         16.000000   ; qtot -66.31
; residue 214 DG  rtp DG   q -1.0
  2124          P    214     DG      P   2124     1.1659      30.970000
  2125         O2    214     DG    O1P   2125    -0.7761         16.000000
  2126         O2    214     DG    O2P   2126    -0.7761         16.000000
  2127         OS    214     DG    O5'   2127    -0.4954         16.000000
  2128         CJ    214     DG    C5'   2128    -0.0069      7.978000
  2129         H1    214     DG   H5'1   2129     0.0754      3.024000
  2130         H1    214     DG   H5'2   2130     0.0754      3.024000
  2131         CT    214     DG    C4'   2131     0.1629      9.994000
  2132         H1    214     DG    H4'   2132     0.1176      3.024000
  2133         OS    214     DG    O4'   2133    -0.3691         16.000000
  2134         CT    214     DG    C1'   2134     0.0358      9.994000
  2135         H2    214     DG    H1'   2135     0.1746      3.024000
  2136         N*    214     DG     N9   2136     0.0577      14.010000
  2137         CK    214     DG     C8   2137     0.0736      9.994000
  2138         H5    214     DG     H8   2138     0.1997      3.024000
  2139         NB    214     DG     N7   2139    -0.5725      14.010000
  2140         CB    214     DG     C5   2140     0.1991      12.010000
  2141          C    214     DG     C6   2141     0.4918      12.010000
  2142          O    214     DG     O6   2142    -0.5699         16.000000
  2143         NA    214     DG     N1   2143    -0.5053      11.994000
  2144          H    214     DG     H1   2144      0.352      3.024000
  2145         CA    214     DG     C2   2145     0.7432      12.010000
  2146         N2    214     DG     N2   2146     -0.923      9.978000
  2147          H    214     DG    H21   2147     0.4235      3.024000
  2148          H    214     DG    H22   2148     0.4235      3.024000
  2149         NC    214     DG     N3   2149    -0.6636      14.010000
  2150         CB    214     DG     C4   2150     0.1814      12.010000
  2151         C7    214     DG    C3'   2151     0.0713      9.994000
  2152         H1    214     DG    H3'   2152     0.0985      3.024000
  2153         CT    214     DG    C2'   2153    -0.0854      7.978000
  2154         HC    214     DG   H2'1   2154     0.0718      3.024000
  2155         HC    214     DG   H2'2   2155     0.0718      3.024000
  2156         OS    214     DG    O3'   2156    -0.5232         16.000000   ; qtot -67.31
; residue 215 DC  rtp DC   q -1.0
  2157          P    215     DC      P   2157     1.1659      30.970000
  2158         O2    215     DC    O1P   2158    -0.7761         16.000000
  2159         O2    215     DC    O2P   2159    -0.7761         16.000000
  2160         OS    215     DC    O5'   2160    -0.4954         16.000000
  2161         CJ    215     DC    C5'   2161    -0.0069      7.978000
  2162         H1    215     DC   H5'1   2162     0.0754      3.024000
  2163         H1    215     DC   H5'2   2163     0.0754      3.024000
  2164         CT    215     DC    C4'   2164     0.1629      9.994000
  2165         H1    215     DC    H4'   2165     0.1176      3.024000
  2166         OS    215     DC    O4'   2166    -0.3691         16.000000
  2167         CT    215     DC    C1'   2167    -0.0116      9.994000
  2168         H2    215     DC    H1'   2168     0.1963      3.024000
  2169         N*    215     DC     N1   2169    -0.0339      14.010000
  2170         C1    215     DC     C6   2170    -0.0183      9.994000
  2171         H4    215     DC     H6   2171     0.2293      3.024000
  2172         C1    215     DC     C5   2172    -0.5222      9.994000
  2173         HA    215     DC     H5   2173     0.1863      3.024000
  2174         CA    215     DC     C4   2174     0.8439      12.010000
  2175         N2    215     DC     N4   2175    -0.9773      9.978000
  2176          H    215     DC    H41   2176     0.4314      3.024000
  2177          H    215     DC    H42   2177     0.4314      3.024000
  2178         NC    215     DC     N3   2178    -0.7748      14.010000
  2179          C    215     DC     C2   2179     0.7959      12.010000
  2180          O    215     DC     O2   2180    -0.6548         16.000000
  2181         C7    215     DC    C3'   2181     0.0713      9.994000
  2182         H1    215     DC    H3'   2182     0.0985      3.024000
  2183         CT    215     DC    C2'   2183    -0.0854      7.978000
  2184         HC    215     DC   H2'1   2184     0.0718      3.024000
  2185         HC    215     DC   H2'2   2185     0.0718      3.024000
  2186         OS    215     DC    O3'   2186    -0.5232         16.000000   ; qtot -68.31
; residue 216 DC  rtp DC   q -1.0
  2187          P    216     DC      P   2187     1.1659      30.970000
  2188         O2    216     DC    O1P   2188    -0.7761         16.000000
  2189         O2    216     DC    O2P   2189    -0.7761         16.000000
  2190         OS    216     DC    O5'   2190    -0.4954         16.000000
  2191         CJ    216     DC    C5'   2191    -0.0069      7.978000
  2192         H1    216     DC   H5'1   2192     0.0754      3.024000
  2193         H1    216     DC   H5'2   2193     0.0754      3.024000
  2194         CT    216     DC    C4'   2194     0.1629      9.994000
  2195         H1    216     DC    H4'   2195     0.1176      3.024000
  2196         OS    216     DC    O4'   2196    -0.3691         16.000000
  2197         CT    216     DC    C1'   2197    -0.0116      9.994000
  2198         H2    216     DC    H1'   2198     0.1963      3.024000
  2199         N*    216     DC     N1   2199    -0.0339      14.010000
  2200         C1    216     DC     C6   2200    -0.0183      9.994000
  2201         H4    216     DC     H6   2201     0.2293      3.024000
  2202         C1    216     DC     C5   2202    -0.5222      9.994000
  2203         HA    216     DC     H5   2203     0.1863      3.024000
  2204         CA    216     DC     C4   2204     0.8439      12.010000
  2205         N2    216     DC     N4   2205    -0.9773      9.978000
  2206          H    216     DC    H41   2206     0.4314      3.024000
  2207          H    216     DC    H42   2207     0.4314      3.024000
  2208         NC    216     DC     N3   2208    -0.7748      14.010000
  2209          C    216     DC     C2   2209     0.7959      12.010000
  2210          O    216     DC     O2   2210    -0.6548         16.000000
  2211         C7    216     DC    C3'   2211     0.0713      9.994000
  2212         H1    216     DC    H3'   2212     0.0985      3.024000
  2213         CT    216     DC    C2'   2213    -0.0854      7.978000
  2214         HC    216     DC   H2'1   2214     0.0718      3.024000
  2215         HC    216     DC   H2'2   2215     0.0718      3.024000
  2216         OS    216     DC    O3'   2216    -0.5232         16.000000   ; qtot -69.31
; residue 217 DG  rtp DG   q -1.0
  2217          P    217     DG      P   2217     1.1659      30.970000
  2218         O2    217     DG    O1P   2218    -0.7761         16.000000
  2219         O2    217     DG    O2P   2219    -0.7761         16.000000
  2220         OS    217     DG    O5'   2220    -0.4954         16.000000
  2221         CJ    217     DG    C5'   2221    -0.0069      7.978000
  2222         H1    217     DG   H5'1   2222     0.0754      3.024000
  2223         H1    217     DG   H5'2   2223     0.0754      3.024000
  2224         CT    217     DG    C4'   2224     0.1629      9.994000
  2225         H1    217     DG    H4'   2225     0.1176      3.024000
  2226         OS    217     DG    O4'   2226    -0.3691         16.000000
  2227         CT    217     DG    C1'   2227     0.0358      9.994000
  2228         H2    217     DG    H1'   2228     0.1746      3.024000
  2229         N*    217     DG     N9   2229     0.0577      14.010000
  2230         CK    217     DG     C8   2230     0.0736      9.994000
  2231         H5    217     DG     H8   2231     0.1997      3.024000
  2232         NB    217     DG     N7   2232    -0.5725      14.010000
  2233         CB    217     DG     C5   2233     0.1991      12.010000
  2234          C    217     DG     C6   2234     0.4918      12.010000
  2235          O    217     DG     O6   2235    -0.5699         16.000000
  2236         NA    217     DG     N1   2236    -0.5053      11.994000
  2237          H    217     DG     H1   2237      0.352      3.024000
  2238         CA    217     DG     C2   2238     0.7432      12.010000
  2239         N2    217     DG     N2   2239     -0.923      9.978000
  2240          H    217     DG    H21   2240     0.4235      3.024000
  2241          H    217     DG    H22   2241     0.4235      3.024000
  2242         NC    217     DG     N3   2242    -0.6636      14.010000
  2243         CB    217     DG     C4   2243     0.1814      12.010000
  2244         C7    217     DG    C3'   2244     0.0713      9.994000
  2245         H1    217     DG    H3'   2245     0.0985      3.024000
  2246         CT    217     DG    C2'   2246    -0.0854      7.978000
  2247         HC    217     DG   H2'1   2247     0.0718      3.024000
  2248         HC    217     DG   H2'2   2248     0.0718      3.024000
  2249         OS    217     DG    O3'   2249    -0.5232         16.000000   ; qtot -70.31
; residue 218 DC  rtp DC   q -1.0
  2250          P    218     DC      P   2250     1.1659      30.970000
  2251         O2    218     DC    O1P   2251    -0.7761         16.000000
  2252         O2    218     DC    O2P   2252    -0.7761         16.000000
  2253         OS    218     DC    O5'   2253    -0.4954         16.000000
  2254         CJ    218     DC    C5'   2254    -0.0069      7.978000
  2255         H1    218     DC   H5'1   2255     0.0754      3.024000
  2256         H1    218     DC   H5'2   2256     0.0754      3.024000
  2257         CT    218     DC    C4'   2257     0.1629      9.994000
  2258         H1    218     DC    H4'   2258     0.1176      3.024000
  2259         OS    218     DC    O4'   2259    -0.3691         16.000000
  2260         CT    218     DC    C1'   2260    -0.0116      9.994000
  2261         H2    218     DC    H1'   2261     0.1963      3.024000
  2262         N*    218     DC     N1   2262    -0.0339      14.010000
  2263         C1    218     DC     C6   2263    -0.0183      9.994000
  2264         H4    218     DC     H6   2264     0.2293      3.024000
  2265         C1    218     DC     C5   2265    -0.5222      9.994000
  2266         HA    218     DC     H5   2266     0.1863      3.024000
  2267         CA    218     DC     C4   2267     0.8439      12.010000
  2268         N2    218     DC     N4   2268    -0.9773      9.978000
  2269          H    218     DC    H41   2269     0.4314      3.024000
  2270          H    218     DC    H42   2270     0.4314      3.024000
  2271         NC    218     DC     N3   2271    -0.7748      14.010000
  2272          C    218     DC     C2   2272     0.7959      12.010000
  2273          O    218     DC     O2   2273    -0.6548         16.000000
  2274         C7    218     DC    C3'   2274     0.0713      9.994000
  2275         H1    218     DC    H3'   2275     0.0985      3.024000
  2276         CT    218     DC    C2'   2276    -0.0854      7.978000
  2277         HC    218     DC   H2'1   2277     0.0718      3.024000
  2278         HC    218     DC   H2'2   2278     0.0718      3.024000
  2279         OS    218     DC    O3'   2279    -0.5232         16.000000   ; qtot -71.31
; residue 219 DT  rtp DT   q -1.0
  2280          P    219     DT      P   2280     1.1659      30.970000
  2281         O2    219     DT    O1P   2281    -0.7761         16.000000
  2282         O2    219     DT    O2P   2282    -0.7761         16.000000
  2283         OS    219     DT    O5'   2283    -0.4954         16.000000
  2284         CJ    219     DT    C5'   2284    -0.0069      7.978000
  2285         H1    219     DT   H5'1   2285     0.0754      3.024000
  2286         H1    219     DT   H5'2   2286     0.0754      3.024000
  2287         CT    219     DT    C4'   2287     0.1629      9.994000
  2288         H1    219     DT    H4'   2288     0.1176      3.024000
  2289         OS    219     DT    O4'   2289    -0.3691         16.000000
  2290         CT    219     DT    C1'   2290      0.068      9.994000
  2291         H2    219     DT    H1'   2291     0.1804      3.024000
  2292         N*    219     DT     N1   2292    -0.0239      14.010000
  2293         CM    219     DT     C6   2293    -0.2209      9.994000
  2294         H4    219     DT     H6   2294     0.2607      3.024000
  2295         CM    219     DT     C5   2295     0.0025      12.010000
  2296         CT    219     DT     C7   2296    -0.2269      5.962000
  2297         HC    219     DT    H71   2297      0.077      3.024000
  2298         HC    219     DT    H72   2298      0.077      3.024000
  2299         HC    219     DT    H73   2299      0.077      3.024000
  2300          C    219     DT     C4   2300     0.5194      12.010000
  2301          O    219     DT     O4   2301    -0.5563         16.000000
  2302         NA    219     DT     N3   2302     -0.434      11.994000
  2303          H    219     DT     H3   2303      0.342      3.024000
  2304          C    219     DT     C2   2304     0.5677      12.010000
  2305          O    219     DT     O2   2305    -0.5881         16.000000
  2306         C7    219     DT    C3'   2306     0.0713      9.994000
  2307         H1    219     DT    H3'   2307     0.0985      3.024000
  2308         CT    219     DT    C2'   2308    -0.0854      7.978000
  2309         HC    219     DT   H2'1   2309     0.0718      3.024000
  2310         HC    219     DT   H2'2   2310     0.0718      3.024000
  2311         OS    219     DT    O3'   2311    -0.5232         16.000000   ; qtot -72.31
; residue 220 DG  rtp DG   q -1.0
  2312          P    220     DG      P   2312     1.1659      30.970000
  2313         O2    220     DG    O1P   2313    -0.7761         16.000000
  2314         O2    220     DG    O2P   2314    -0.7761         16.000000
  2315         OS    220     DG    O5'   2315    -0.4954         16.000000
  2316         CJ    220     DG    C5'   2316    -0.0069      7.978000
  2317         H1    220     DG   H5'1   2317     0.0754      3.024000
  2318         H1    220     DG   H5'2   2318     0.0754      3.024000
  2319         CT    220     DG    C4'   2319     0.1629      9.994000
  2320         H1    220     DG    H4'   2320     0.1176      3.024000
  2321         OS    220     DG    O4'   2321    -0.3691         16.000000
  2322         CT    220     DG    C1'   2322     0.0358      9.994000
  2323         H2    220     DG    H1'   2323     0.1746      3.024000
  2324         N*    220     DG     N9   2324     0.0577      14.010000
  2325         CK    220     DG     C8   2325     0.0736      9.994000
  2326         H5    220     DG     H8   2326     0.1997      3.024000
  2327         NB    220     DG     N7   2327    -0.5725      14.010000
  2328         CB    220     DG     C5   2328     0.1991      12.010000
  2329          C    220     DG     C6   2329     0.4918      12.010000
  2330          O    220     DG     O6   2330    -0.5699         16.000000
  2331         NA    220     DG     N1   2331    -0.5053      11.994000
  2332          H    220     DG     H1   2332      0.352      3.024000
  2333         CA    220     DG     C2   2333     0.7432      12.010000
  2334         N2    220     DG     N2   2334     -0.923      9.978000
  2335          H    220     DG    H21   2335     0.4235      3.024000
  2336          H    220     DG    H22   2336     0.4235      3.024000
  2337         NC    220     DG     N3   2337    -0.6636      14.010000
  2338         CB    220     DG     C4   2338     0.1814      12.010000
  2339         C7    220     DG    C3'   2339     0.0713      9.994000
  2340         H1    220     DG    H3'   2340     0.0985      3.024000
  2341         CT    220     DG    C2'   2341    -0.0854      7.978000
  2342         HC    220     DG   H2'1   2342     0.0718      3.024000
  2343         HC    220     DG   H2'2   2343     0.0718      3.024000
  2344         OS    220     DG    O3'   2344    -0.5232         16.000000   ; qtot -73.31
; residue 221 DA  rtp DA   q -1.0
  2345          P    221     DA      P   2345     1.1659      30.970000
  2346         O2    221     DA    O1P   2346    -0.7761         16.000000
  2347         O2    221     DA    O2P   2347    -0.7761         16.000000
  2348         OS    221     DA    O5'   2348    -0.4954         16.000000
  2349         CJ    221     DA    C5'   2349    -0.0069      7.978000
  2350         H1    221     DA   H5'1   2350     0.0754      3.024000
  2351         H1    221     DA   H5'2   2351     0.0754      3.024000
  2352         CT    221     DA    C4'   2352     0.1629      9.994000
  2353         H1    221     DA    H4'   2353     0.1176      3.024000
  2354         OS    221     DA    O4'   2354    -0.3691         16.000000
  2355         CT    221     DA    C1'   2355     0.0431      9.994000
  2356         H2    221     DA    H1'   2356     0.1838      3.024000
  2357         N*    221     DA     N9   2357    -0.0268      14.010000
  2358         C2    221     DA     C8   2358     0.1607      9.994000
  2359         H5    221     DA     H8   2359     0.1877      3.024000
  2360         NB    221     DA     N7   2360    -0.6175      14.010000
  2361         CB    221     DA     C5   2361     0.0725      12.010000
  2362         CA    221     DA     C6   2362     0.6897      12.010000
  2363         N2    221     DA     N6   2363    -0.9123      9.978000
  2364          H    221     DA    H61   2364     0.4167      3.024000
  2365          H    221     DA    H62   2365     0.4167      3.024000
  2366         NC    221     DA     N1   2366    -0.7624      14.010000
  2367         CQ    221     DA     C2   2367     0.5716      9.994000
  2368         H5    221     DA     H2   2368     0.0598      3.024000
  2369         NC    221     DA     N3   2369    -0.7417      14.010000
  2370         CB    221     DA     C4   2370       0.38      12.010000
  2371         C7    221     DA    C3'   2371     0.0713      9.994000
  2372         H1    221     DA    H3'   2372     0.0985      3.024000
  2373         CT    221     DA    C2'   2373    -0.0854      7.978000
  2374         HC    221     DA   H2'1   2374     0.0718      3.024000
  2375         HC    221     DA   H2'2   2375     0.0718      3.024000
  2376         OS    221     DA    O3'   2376    -0.5232         16.000000   ; qtot -74.31
; residue 222 DG  rtp DG   q -1.0
  2377          P    222     DG      P   2377     1.1659      30.970000
  2378         O2    222     DG    O1P   2378    -0.7761         16.000000
  2379         O2    222     DG    O2P   2379    -0.7761         16.000000
  2380         OS    222     DG    O5'   2380    -0.4954         16.000000
  2381         CJ    222     DG    C5'   2381    -0.0069      7.978000
  2382         H1    222     DG   H5'1   2382     0.0754      3.024000
  2383         H1    222     DG   H5'2   2383     0.0754      3.024000
  2384         CT    222     DG    C4'   2384     0.1629      9.994000
  2385         H1    222     DG    H4'   2385     0.1176      3.024000
  2386         OS    222     DG    O4'   2386    -0.3691         16.000000
  2387         CT    222     DG    C1'   2387     0.0358      9.994000
  2388         H2    222     DG    H1'   2388     0.1746      3.024000
  2389         N*    222     DG     N9   2389     0.0577      14.010000
  2390         CK    222     DG     C8   2390     0.0736      9.994000
  2391         H5    222     DG     H8   2391     0.1997      3.024000
  2392         NB    222     DG     N7   2392    -0.5725      14.010000
  2393         CB    222     DG     C5   2393     0.1991      12.010000
  2394          C    222     DG     C6   2394     0.4918      12.010000
  2395          O    222     DG     O6   2395    -0.5699         16.000000
  2396         NA    222     DG     N1   2396    -0.5053      11.994000
  2397          H    222     DG     H1   2397      0.352      3.024000
  2398         CA    222     DG     C2   2398     0.7432      12.010000
  2399         N2    222     DG     N2   2399     -0.923      9.978000
  2400          H    222     DG    H21   2400     0.4235      3.024000
  2401          H    222     DG    H22   2401     0.4235      3.024000
  2402         NC    222     DG     N3   2402    -0.6636      14.010000
  2403         CB    222     DG     C4   2403     0.1814      12.010000
  2404         C7    222     DG    C3'   2404     0.0713      9.994000
  2405         H1    222     DG    H3'   2405     0.0985      3.024000
  2406         CT    222     DG    C2'   2406    -0.0854      7.978000
  2407         HC    222     DG   H2'1   2407     0.0718      3.024000
  2408         HC    222     DG   H2'2   2408     0.0718      3.024000
  2409         OS    222     DG    O3'   2409    -0.5232         16.000000   ; qtot -75.31
; residue 223 DC  rtp DC   q -1.0
  2410          P    223     DC      P   2410     1.1659      30.970000
  2411         O2    223     DC    O1P   2411    -0.7761         16.000000
  2412         O2    223     DC    O2P   2412    -0.7761         16.000000
  2413         OS    223     DC    O5'   2413    -0.4954         16.000000
  2414         CJ    223     DC    C5'   2414    -0.0069      7.978000
  2415         H1    223     DC   H5'1   2415     0.0754      3.024000
  2416         H1    223     DC   H5'2   2416     0.0754      3.024000
  2417         CT    223     DC    C4'   2417     0.1629      9.994000
  2418         H1    223     DC    H4'   2418     0.1176      3.024000
  2419         OS    223     DC    O4'   2419    -0.3691         16.000000
  2420         CT    223     DC    C1'   2420    -0.0116      9.994000
  2421         H2    223     DC    H1'   2421     0.1963      3.024000
  2422         N*    223     DC     N1   2422    -0.0339      14.010000
  2423         C1    223     DC     C6   2423    -0.0183      9.994000
  2424         H4    223     DC     H6   2424     0.2293      3.024000
  2425         C1    223     DC     C5   2425    -0.5222      9.994000
  2426         HA    223     DC     H5   2426     0.1863      3.024000
  2427         CA    223     DC     C4   2427     0.8439      12.010000
  2428         N2    223     DC     N4   2428    -0.9773      9.978000
  2429          H    223     DC    H41   2429     0.4314      3.024000
  2430          H    223     DC    H42   2430     0.4314      3.024000
  2431         NC    223     DC     N3   2431    -0.7748      14.010000
  2432          C    223     DC     C2   2432     0.7959      12.010000
  2433          O    223     DC     O2   2433    -0.6548         16.000000
  2434         C7    223     DC    C3'   2434     0.0713      9.994000
  2435         H1    223     DC    H3'   2435     0.0985      3.024000
  2436         CT    223     DC    C2'   2436    -0.0854      7.978000
  2437         HC    223     DC   H2'1   2437     0.0718      3.024000
  2438         HC    223     DC   H2'2   2438     0.0718      3.024000
  2439         OS    223     DC    O3'   2439    -0.5232         16.000000   ; qtot -76.31
; residue 224 DC  rtp DC   q -1.0
  2440          P    224     DC      P   2440     1.1659      30.970000
  2441         O2    224     DC    O1P   2441    -0.7761         16.000000
  2442         O2    224     DC    O2P   2442    -0.7761         16.000000
  2443         OS    224     DC    O5'   2443    -0.4954         16.000000
  2444         CJ    224     DC    C5'   2444    -0.0069      7.978000
  2445         H1    224     DC   H5'1   2445     0.0754      3.024000
  2446         H1    224     DC   H5'2   2446     0.0754      3.024000
  2447         CT    224     DC    C4'   2447     0.1629      9.994000
  2448         H1    224     DC    H4'   2448     0.1176      3.024000
  2449         OS    224     DC    O4'   2449    -0.3691         16.000000
  2450         CT    224     DC    C1'   2450    -0.0116      9.994000
  2451         H2    224     DC    H1'   2451     0.1963      3.024000
  2452         N*    224     DC     N1   2452    -0.0339      14.010000
  2453         C1    224     DC     C6   2453    -0.0183      9.994000
  2454         H4    224     DC     H6   2454     0.2293      3.024000
  2455         C1    224     DC     C5   2455    -0.5222      9.994000
  2456         HA    224     DC     H5   2456     0.1863      3.024000
  2457         CA    224     DC     C4   2457     0.8439      12.010000
  2458         N2    224     DC     N4   2458    -0.9773      9.978000
  2459          H    224     DC    H41   2459     0.4314      3.024000
  2460          H    224     DC    H42   2460     0.4314      3.024000
  2461         NC    224     DC     N3   2461    -0.7748      14.010000
  2462          C    224     DC     C2   2462     0.7959      12.010000
  2463          O    224     DC     O2   2463    -0.6548         16.000000
  2464         C7    224     DC    C3'   2464     0.0713      9.994000
  2465         H1    224     DC    H3'   2465     0.0985      3.024000
  2466         CT    224     DC    C2'   2466    -0.0854      7.978000
  2467         HC    224     DC   H2'1   2467     0.0718      3.024000
  2468         HC    224     DC   H2'2   2468     0.0718      3.024000
  2469         OS    224     DC    O3'   2469    -0.5232         16.000000   ; qtot -77.31
; residue 225 DT  rtp DT   q -1.0
  2470          P    225     DT      P   2470     1.1659      30.970000
  2471         O2    225     DT    O1P   2471    -0.7761         16.000000
  2472         O2    225     DT    O2P   2472    -0.7761         16.000000
  2473         OS    225     DT    O5'   2473    -0.4954         16.000000
  2474         CJ    225     DT    C5'   2474    -0.0069      7.978000
  2475         H1    225     DT   H5'1   2475     0.0754      3.024000
  2476         H1    225     DT   H5'2   2476     0.0754      3.024000
  2477         CT    225     DT    C4'   2477     0.1629      9.994000
  2478         H1    225     DT    H4'   2478     0.1176      3.024000
  2479         OS    225     DT    O4'   2479    -0.3691         16.000000
  2480         CT    225     DT    C1'   2480      0.068      9.994000
  2481         H2    225     DT    H1'   2481     0.1804      3.024000
  2482         N*    225     DT     N1   2482    -0.0239      14.010000
  2483         CM    225     DT     C6   2483    -0.2209      9.994000
  2484         H4    225     DT     H6   2484     0.2607      3.024000
  2485         CM    225     DT     C5   2485     0.0025      12.010000
  2486         CT    225     DT     C7   2486    -0.2269      5.962000
  2487         HC    225     DT    H71   2487      0.077      3.024000
  2488         HC    225     DT    H72   2488      0.077      3.024000
  2489         HC    225     DT    H73   2489      0.077      3.024000
  2490          C    225     DT     C4   2490     0.5194      12.010000
  2491          O    225     DT     O4   2491    -0.5563         16.000000
  2492         NA    225     DT     N3   2492     -0.434      11.994000
  2493          H    225     DT     H3   2493      0.342      3.024000
  2494          C    225     DT     C2   2494     0.5677      12.010000
  2495          O    225     DT     O2   2495    -0.5881         16.000000
  2496         C7    225     DT    C3'   2496     0.0713      9.994000
  2497         H1    225     DT    H3'   2497     0.0985      3.024000
  2498         CT    225     DT    C2'   2498    -0.0854      7.978000
  2499         HC    225     DT   H2'1   2499     0.0718      3.024000
  2500         HC    225     DT   H2'2   2500     0.0718      3.024000
  2501         OS    225     DT    O3'   2501    -0.5232         16.000000   ; qtot -78.31
; residue 226 DC  rtp DC   q -1.0
  2502          P    226     DC      P   2502     1.1659      30.970000
  2503         O2    226     DC    O1P   2503    -0.7761         16.000000
  2504         O2    226     DC    O2P   2504    -0.7761         16.000000
  2505         OS    226     DC    O5'   2505    -0.4954         16.000000
  2506         CJ    226     DC    C5'   2506    -0.0069      7.978000
  2507         H1    226     DC   H5'1   2507     0.0754      3.024000
  2508         H1    226     DC   H5'2   2508     0.0754      3.024000
  2509         CT    226     DC    C4'   2509     0.1629      9.994000
  2510         H1    226     DC    H4'   2510     0.1176      3.024000
  2511         OS    226     DC    O4'   2511    -0.3691         16.000000
  2512         CT    226     DC    C1'   2512    -0.0116      9.994000
  2513         H2    226     DC    H1'   2513     0.1963      3.024000
  2514         N*    226     DC     N1   2514    -0.0339      14.010000
  2515         C1    226     DC     C6   2515    -0.0183      9.994000
  2516         H4    226     DC     H6   2516     0.2293      3.024000
  2517         C1    226     DC     C5   2517    -0.5222      9.994000
  2518         HA    226     DC     H5   2518     0.1863      3.024000
  2519         CA    226     DC     C4   2519     0.8439      12.010000
  2520         N2    226     DC     N4   2520    -0.9773      9.978000
  2521          H    226     DC    H41   2521     0.4314      3.024000
  2522          H    226     DC    H42   2522     0.4314      3.024000
  2523         NC    226     DC     N3   2523    -0.7748      14.010000
  2524          C    226     DC     C2   2524     0.7959      12.010000
  2525          O    226     DC     O2   2525    -0.6548         16.000000
  2526         C7    226     DC    C3'   2526     0.0713      9.994000
  2527         H1    226     DC    H3'   2527     0.0985      3.024000
  2528         CT    226     DC    C2'   2528    -0.0854      7.978000
  2529         HC    226     DC   H2'1   2529     0.0718      3.024000
  2530         HC    226     DC   H2'2   2530     0.0718      3.024000
  2531         OS    226     DC    O3'   2531    -0.5232         16.000000   ; qtot -79.31
; residue 227 DT  rtp DT   q -1.0
  2532          P    227     DT      P   2532     1.1659      30.970000
  2533         O2    227     DT    O1P   2533    -0.7761         16.000000
  2534         O2    227     DT    O2P   2534    -0.7761         16.000000
  2535         OS    227     DT    O5'   2535    -0.4954         16.000000
  2536         CJ    227     DT    C5'   2536    -0.0069      7.978000
  2537         H1    227     DT   H5'1   2537     0.0754      3.024000
  2538         H1    227     DT   H5'2   2538     0.0754      3.024000
  2539         CT    227     DT    C4'   2539     0.1629      9.994000
  2540         H1    227     DT    H4'   2540     0.1176      3.024000
  2541         OS    227     DT    O4'   2541    -0.3691         16.000000
  2542         CT    227     DT    C1'   2542      0.068      9.994000
  2543         H2    227     DT    H1'   2543     0.1804      3.024000
  2544         N*    227     DT     N1   2544    -0.0239      14.010000
  2545         CM    227     DT     C6   2545    -0.2209      9.994000
  2546         H4    227     DT     H6   2546     0.2607      3.024000
  2547         CM    227     DT     C5   2547     0.0025      12.010000
  2548         CT    227     DT     C7   2548    -0.2269      5.962000
  2549         HC    227     DT    H71   2549      0.077      3.024000
  2550         HC    227     DT    H72   2550      0.077      3.024000
  2551         HC    227     DT    H73   2551      0.077      3.024000
  2552          C    227     DT     C4   2552     0.5194      12.010000
  2553          O    227     DT     O4   2553    -0.5563         16.000000
  2554         NA    227     DT     N3   2554     -0.434      11.994000
  2555          H    227     DT     H3   2555      0.342      3.024000
  2556          C    227     DT     C2   2556     0.5677      12.010000
  2557          O    227     DT     O2   2557    -0.5881         16.000000
  2558         C7    227     DT    C3'   2558     0.0713      9.994000
  2559         H1    227     DT    H3'   2559     0.0985      3.024000
  2560         CT    227     DT    C2'   2560    -0.0854      7.978000
  2561         HC    227     DT   H2'1   2561     0.0718      3.024000
  2562         HC    227     DT   H2'2   2562     0.0718      3.024000
  2563         OS    227     DT    O3'   2563    -0.5232         16.000000   ; qtot -80.31
; residue 228 DG  rtp DG   q -1.0
  2564          P    228     DG      P   2564     1.1659      30.970000
  2565         O2    228     DG    O1P   2565    -0.7761         16.000000
  2566         O2    228     DG    O2P   2566    -0.7761         16.000000
  2567         OS    228     DG    O5'   2567    -0.4954         16.000000
  2568         CJ    228     DG    C5'   2568    -0.0069      7.978000
  2569         H1    228     DG   H5'1   2569     0.0754      3.024000
  2570         H1    228     DG   H5'2   2570     0.0754      3.024000
  2571         CT    228     DG    C4'   2571     0.1629      9.994000
  2572         H1    228     DG    H4'   2572     0.1176      3.024000
  2573         OS    228     DG    O4'   2573    -0.3691         16.000000
  2574         CT    228     DG    C1'   2574     0.0358      9.994000
  2575         H2    228     DG    H1'   2575     0.1746      3.024000
  2576         N*    228     DG     N9   2576     0.0577      14.010000
  2577         CK    228     DG     C8   2577     0.0736      9.994000
  2578         H5    228     DG     H8   2578     0.1997      3.024000
  2579         NB    228     DG     N7   2579    -0.5725      14.010000
  2580         CB    228     DG     C5   2580     0.1991      12.010000
  2581          C    228     DG     C6   2581     0.4918      12.010000
  2582          O    228     DG     O6   2582    -0.5699         16.000000
  2583         NA    228     DG     N1   2583    -0.5053      11.994000
  2584          H    228     DG     H1   2584      0.352      3.024000
  2585         CA    228     DG     C2   2585     0.7432      12.010000
  2586         N2    228     DG     N2   2586     -0.923      9.978000
  2587          H    228     DG    H21   2587     0.4235      3.024000
  2588          H    228     DG    H22   2588     0.4235      3.024000
  2589         NC    228     DG     N3   2589    -0.6636      14.010000
  2590         CB    228     DG     C4   2590     0.1814      12.010000
  2591         C7    228     DG    C3'   2591     0.0713      9.994000
  2592         H1    228     DG    H3'   2592     0.0985      3.024000
  2593         CT    228     DG    C2'   2593    -0.0854      7.978000
  2594         HC    228     DG   H2'1   2594     0.0718      3.024000
  2595         HC    228     DG   H2'2   2595     0.0718      3.024000
  2596         OS    228     DG    O3'   2596    -0.5232         16.000000   ; qtot -81.31
; residue 229 DG  rtp DG   q -1.0
  2597          P    229     DG      P   2597     1.1659      30.970000
  2598         O2    229     DG    O1P   2598    -0.7761         16.000000
  2599         O2    229     DG    O2P   2599    -0.7761         16.000000
  2600         OS    229     DG    O5'   2600    -0.4954         16.000000
  2601         CJ    229     DG    C5'   2601    -0.0069      7.978000
  2602         H1    229     DG   H5'1   2602     0.0754      3.024000
  2603         H1    229     DG   H5'2   2603     0.0754      3.024000
  2604         CT    229     DG    C4'   2604     0.1629      9.994000
  2605         H1    229     DG    H4'   2605     0.1176      3.024000
  2606         OS    229     DG    O4'   2606    -0.3691         16.000000
  2607         CT    229     DG    C1'   2607     0.0358      9.994000
  2608         H2    229     DG    H1'   2608     0.1746      3.024000
  2609         N*    229     DG     N9   2609     0.0577      14.010000
  2610         CK    229     DG     C8   2610     0.0736      9.994000
  2611         H5    229     DG     H8   2611     0.1997      3.024000
  2612         NB    229     DG     N7   2612    -0.5725      14.010000
  2613         CB    229     DG     C5   2613     0.1991      12.010000
  2614          C    229     DG     C6   2614     0.4918      12.010000
  2615          O    229     DG     O6   2615    -0.5699         16.000000
  2616         NA    229     DG     N1   2616    -0.5053      11.994000
  2617          H    229     DG     H1   2617      0.352      3.024000
  2618         CA    229     DG     C2   2618     0.7432      12.010000
  2619         N2    229     DG     N2   2619     -0.923      9.978000
  2620          H    229     DG    H21   2620     0.4235      3.024000
  2621          H    229     DG    H22   2621     0.4235      3.024000
  2622         NC    229     DG     N3   2622    -0.6636      14.010000
  2623         CB    229     DG     C4   2623     0.1814      12.010000
  2624         C7    229     DG    C3'   2624     0.0713      9.994000
  2625         H1    229     DG    H3'   2625     0.0985      3.024000
  2626         CT    229     DG    C2'   2626    -0.0854      7.978000
  2627         HC    229     DG   H2'1   2627     0.0718      3.024000
  2628         HC    229     DG   H2'2   2628     0.0718      3.024000
  2629         OS    229     DG    O3'   2629    -0.5232         16.000000   ; qtot -82.31
; residue 230 DC  rtp DC   q -1.0
  2630          P    230     DC      P   2630     1.1659      30.970000
  2631         O2    230     DC    O1P   2631    -0.7761         16.000000
  2632         O2    230     DC    O2P   2632    -0.7761         16.000000
  2633         OS    230     DC    O5'   2633    -0.4954         16.000000
  2634         CJ    230     DC    C5'   2634    -0.0069      7.978000
  2635         H1    230     DC   H5'1   2635     0.0754      3.024000
  2636         H1    230     DC   H5'2   2636     0.0754      3.024000
  2637         CT    230     DC    C4'   2637     0.1629      9.994000
  2638         H1    230     DC    H4'   2638     0.1176      3.024000
  2639         OS    230     DC    O4'   2639    -0.3691         16.000000
  2640         CT    230     DC    C1'   2640    -0.0116      9.994000
  2641         H2    230     DC    H1'   2641     0.1963      3.024000
  2642         N*    230     DC     N1   2642    -0.0339      14.010000
  2643         C1    230     DC     C6   2643    -0.0183      9.994000
  2644         H4    230     DC     H6   2644     0.2293      3.024000
  2645         C1    230     DC     C5   2645    -0.5222      9.994000
  2646         HA    230     DC     H5   2646     0.1863      3.024000
  2647         CA    230     DC     C4   2647     0.8439      12.010000
  2648         N2    230     DC     N4   2648    -0.9773      9.978000
  2649          H    230     DC    H41   2649     0.4314      3.024000
  2650          H    230     DC    H42   2650     0.4314      3.024000
  2651         NC    230     DC     N3   2651    -0.7748      14.010000
  2652          C    230     DC     C2   2652     0.7959      12.010000
  2653          O    230     DC     O2   2653    -0.6548         16.000000
  2654         C7    230     DC    C3'   2654     0.0713      9.994000
  2655         H1    230     DC    H3'   2655     0.0985      3.024000
  2656         CT    230     DC    C2'   2656    -0.0854      7.978000
  2657         HC    230     DC   H2'1   2657     0.0718      3.024000
  2658         HC    230     DC   H2'2   2658     0.0718      3.024000
  2659         OS    230     DC    O3'   2659    -0.5232         16.000000   ; qtot -83.31
; residue 231 DC  rtp DC   q -1.0
  2660          P    231     DC      P   2660     1.1659      30.970000
  2661         O2    231     DC    O1P   2661    -0.7761         16.000000
  2662         O2    231     DC    O2P   2662    -0.7761         16.000000
  2663         OS    231     DC    O5'   2663    -0.4954         16.000000
  2664         CJ    231     DC    C5'   2664    -0.0069      7.978000
  2665         H1    231     DC   H5'1   2665     0.0754      3.024000
  2666         H1    231     DC   H5'2   2666     0.0754      3.024000
  2667         CT    231     DC    C4'   2667     0.1629      9.994000
  2668         H1    231     DC    H4'   2668     0.1176      3.024000
  2669         OS    231     DC    O4'   2669    -0.3691         16.000000
  2670         CT    231     DC    C1'   2670    -0.0116      9.994000
  2671         H2    231     DC    H1'   2671     0.1963      3.024000
  2672         N*    231     DC     N1   2672    -0.0339      14.010000
  2673         C1    231     DC     C6   2673    -0.0183      9.994000
  2674         H4    231     DC     H6   2674     0.2293      3.024000
  2675         C1    231     DC     C5   2675    -0.5222      9.994000
  2676         HA    231     DC     H5   2676     0.1863      3.024000
  2677         CA    231     DC     C4   2677     0.8439      12.010000
  2678         N2    231     DC     N4   2678    -0.9773      9.978000
  2679          H    231     DC    H41   2679     0.4314      3.024000
  2680          H    231     DC    H42   2680     0.4314      3.024000
  2681         NC    231     DC     N3   2681    -0.7748      14.010000
  2682          C    231     DC     C2   2682     0.7959      12.010000
  2683          O    231     DC     O2   2683    -0.6548         16.000000
  2684         C7    231     DC    C3'   2684     0.0713      9.994000
  2685         H1    231     DC    H3'   2685     0.0985      3.024000
  2686         CT    231     DC    C2'   2686    -0.0854      7.978000
  2687         HC    231     DC   H2'1   2687     0.0718      3.024000
  2688         HC    231     DC   H2'2   2688     0.0718      3.024000
  2689         OS    231     DC    O3'   2689    -0.5232         16.000000   ; qtot -84.31
; residue 232 DC  rtp DC   q -1.0
  2690          P    232     DC      P   2690     1.1659      30.970000
  2691         O2    232     DC    O1P   2691    -0.7761         16.000000
  2692         O2    232     DC    O2P   2692    -0.7761         16.000000
  2693         OS    232     DC    O5'   2693    -0.4954         16.000000
  2694         CJ    232     DC    C5'   2694    -0.0069      7.978000
  2695         H1    232     DC   H5'1   2695     0.0754      3.024000
  2696         H1    232     DC   H5'2   2696     0.0754      3.024000
  2697         CT    232     DC    C4'   2697     0.1629      9.994000
  2698         H1    232     DC    H4'   2698     0.1176      3.024000
  2699         OS    232     DC    O4'   2699    -0.3691         16.000000
  2700         CT    232     DC    C1'   2700    -0.0116      9.994000
  2701         H2    232     DC    H1'   2701     0.1963      3.024000
  2702         N*    232     DC     N1   2702    -0.0339      14.010000
  2703         C1    232     DC     C6   2703    -0.0183      9.994000
  2704         H4    232     DC     H6   2704     0.2293      3.024000
  2705         C1    232     DC     C5   2705    -0.5222      9.994000
  2706         HA    232     DC     H5   2706     0.1863      3.024000
  2707         CA    232     DC     C4   2707     0.8439      12.010000
  2708         N2    232     DC     N4   2708    -0.9773      9.978000
  2709          H    232     DC    H41   2709     0.4314      3.024000
  2710          H    232     DC    H42   2710     0.4314      3.024000
  2711         NC    232     DC     N3   2711    -0.7748      14.010000
  2712          C    232     DC     C2   2712     0.7959      12.010000
  2713          O    232     DC     O2   2713    -0.6548         16.000000
  2714         C7    232     DC    C3'   2714     0.0713      9.994000
  2715         H1    232     DC    H3'   2715     0.0985      3.024000
  2716         CT    232     DC    C2'   2716    -0.0854      7.978000
  2717         HC    232     DC   H2'1   2717     0.0718      3.024000
  2718         HC    232     DC   H2'2   2718     0.0718      3.024000
  2719         OS    232     DC    O3'   2719    -0.5232         16.000000   ; qtot -85.31
; residue 233 DC  rtp DC   q -1.0
  2720          P    233     DC      P   2720     1.1659      30.970000
  2721         O2    233     DC    O1P   2721    -0.7761         16.000000
  2722         O2    233     DC    O2P   2722    -0.7761         16.000000
  2723         OS    233     DC    O5'   2723    -0.4954         16.000000
  2724         CJ    233     DC    C5'   2724    -0.0069      7.978000
  2725         H1    233     DC   H5'1   2725     0.0754      3.024000
  2726         H1    233     DC   H5'2   2726     0.0754      3.024000
  2727         CT    233     DC    C4'   2727     0.1629      9.994000
  2728         H1    233     DC    H4'   2728     0.1176      3.024000
  2729         OS    233     DC    O4'   2729    -0.3691         16.000000
  2730         CT    233     DC    C1'   2730    -0.0116      9.994000
  2731         H2    233     DC    H1'   2731     0.1963      3.024000
  2732         N*    233     DC     N1   2732    -0.0339      14.010000
  2733         C1    233     DC     C6   2733    -0.0183      9.994000
  2734         H4    233     DC     H6   2734     0.2293      3.024000
  2735         C1    233     DC     C5   2735    -0.5222      9.994000
  2736         HA    233     DC     H5   2736     0.1863      3.024000
  2737         CA    233     DC     C4   2737     0.8439      12.010000
  2738         N2    233     DC     N4   2738    -0.9773      9.978000
  2739          H    233     DC    H41   2739     0.4314      3.024000
  2740          H    233     DC    H42   2740     0.4314      3.024000
  2741         NC    233     DC     N3   2741    -0.7748      14.010000
  2742          C    233     DC     C2   2742     0.7959      12.010000
  2743          O    233     DC     O2   2743    -0.6548         16.000000
  2744         C7    233     DC    C3'   2744     0.0713      9.994000
  2745         H1    233     DC    H3'   2745     0.0985      3.024000
  2746         CT    233     DC    C2'   2746    -0.0854      7.978000
  2747         HC    233     DC   H2'1   2747     0.0718      3.024000
  2748         HC    233     DC   H2'2   2748     0.0718      3.024000
  2749         OS    233     DC    O3'   2749    -0.5232         16.000000   ; qtot -86.31
; residue 234 DG  rtp DG   q -1.0
  2750          P    234     DG      P   2750     1.1659      30.970000
  2751         O2    234     DG    O1P   2751    -0.7761         16.000000
  2752         O2    234     DG    O2P   2752    -0.7761         16.000000
  2753         OS    234     DG    O5'   2753    -0.4954         16.000000
  2754         CJ    234     DG    C5'   2754    -0.0069      7.978000
  2755         H1    234     DG   H5'1   2755     0.0754      3.024000
  2756         H1    234     DG   H5'2   2756     0.0754      3.024000
  2757         CT    234     DG    C4'   2757     0.1629      9.994000
  2758         H1    234     DG    H4'   2758     0.1176      3.024000
  2759         OS    234     DG    O4'   2759    -0.3691         16.000000
  2760         CT    234     DG    C1'   2760     0.0358      9.994000
  2761         H2    234     DG    H1'   2761     0.1746      3.024000
  2762         N*    234     DG     N9   2762     0.0577      14.010000
  2763         CK    234     DG     C8   2763     0.0736      9.994000
  2764         H5    234     DG     H8   2764     0.1997      3.024000
  2765         NB    234     DG     N7   2765    -0.5725      14.010000
  2766         CB    234     DG     C5   2766     0.1991      12.010000
  2767          C    234     DG     C6   2767     0.4918      12.010000
  2768          O    234     DG     O6   2768    -0.5699         16.000000
  2769         NA    234     DG     N1   2769    -0.5053      11.994000
  2770          H    234     DG     H1   2770      0.352      3.024000
  2771         CA    234     DG     C2   2771     0.7432      12.010000
  2772         N2    234     DG     N2   2772     -0.923      9.978000
  2773          H    234     DG    H21   2773     0.4235      3.024000
  2774          H    234     DG    H22   2774     0.4235      3.024000
  2775         NC    234     DG     N3   2775    -0.6636      14.010000
  2776         CB    234     DG     C4   2776     0.1814      12.010000
  2777         C7    234     DG    C3'   2777     0.0713      9.994000
  2778         H1    234     DG    H3'   2778     0.0985      3.024000
  2779         CT    234     DG    C2'   2779    -0.0854      7.978000
  2780         HC    234     DG   H2'1   2780     0.0718      3.024000
  2781         HC    234     DG   H2'2   2781     0.0718      3.024000
  2782         OS    234     DG    O3'   2782    -0.5232         16.000000   ; qtot -87.31
; residue 235 DC  rtp DC   q -1.0
  2783          P    235     DC      P   2783     1.1659      30.970000
  2784         O2    235     DC    O1P   2784    -0.7761         16.000000
  2785         O2    235     DC    O2P   2785    -0.7761         16.000000
  2786         OS    235     DC    O5'   2786    -0.4954         16.000000
  2787         CJ    235     DC    C5'   2787    -0.0069      7.978000
  2788         H1    235     DC   H5'1   2788     0.0754      3.024000
  2789         H1    235     DC   H5'2   2789     0.0754      3.024000
  2790         CT    235     DC    C4'   2790     0.1629      9.994000
  2791         H1    235     DC    H4'   2791     0.1176      3.024000
  2792         OS    235     DC    O4'   2792    -0.3691         16.000000
  2793         CT    235     DC    C1'   2793    -0.0116      9.994000
  2794         H2    235     DC    H1'   2794     0.1963      3.024000
  2795         N*    235     DC     N1   2795    -0.0339      14.010000
  2796         C1    235     DC     C6   2796    -0.0183      9.994000
  2797         H4    235     DC     H6   2797     0.2293      3.024000
  2798         C1    235     DC     C5   2798    -0.5222      9.994000
  2799         HA    235     DC     H5   2799     0.1863      3.024000
  2800         CA    235     DC     C4   2800     0.8439      12.010000
  2801         N2    235     DC     N4   2801    -0.9773      9.978000
  2802          H    235     DC    H41   2802     0.4314      3.024000
  2803          H    235     DC    H42   2803     0.4314      3.024000
  2804         NC    235     DC     N3   2804    -0.7748      14.010000
  2805          C    235     DC     C2   2805     0.7959      12.010000
  2806          O    235     DC     O2   2806    -0.6548         16.000000
  2807         C7    235     DC    C3'   2807     0.0713      9.994000
  2808         H1    235     DC    H3'   2808     0.0985      3.024000
  2809         CT    235     DC    C2'   2809    -0.0854      7.978000
  2810         HC    235     DC   H2'1   2810     0.0718      3.024000
  2811         HC    235     DC   H2'2   2811     0.0718      3.024000
  2812         OS    235     DC    O3'   2812    -0.5232         16.000000   ; qtot -88.31
; residue 236 DC  rtp DC   q -1.0
  2813          P    236     DC      P   2813     1.1659      30.970000
  2814         O2    236     DC    O1P   2814    -0.7761         16.000000
  2815         O2    236     DC    O2P   2815    -0.7761         16.000000
  2816         OS    236     DC    O5'   2816    -0.4954         16.000000
  2817         CJ    236     DC    C5'   2817    -0.0069      7.978000
  2818         H1    236     DC   H5'1   2818     0.0754      3.024000
  2819         H1    236     DC   H5'2   2819     0.0754      3.024000
  2820         CT    236     DC    C4'   2820     0.1629      9.994000
  2821         H1    236     DC    H4'   2821     0.1176      3.024000
  2822         OS    236     DC    O4'   2822    -0.3691         16.000000
  2823         CT    236     DC    C1'   2823    -0.0116      9.994000
  2824         H2    236     DC    H1'   2824     0.1963      3.024000
  2825         N*    236     DC     N1   2825    -0.0339      14.010000
  2826         C1    236     DC     C6   2826    -0.0183      9.994000
  2827         H4    236     DC     H6   2827     0.2293      3.024000
  2828         C1    236     DC     C5   2828    -0.5222      9.994000
  2829         HA    236     DC     H5   2829     0.1863      3.024000
  2830         CA    236     DC     C4   2830     0.8439      12.010000
  2831         N2    236     DC     N4   2831    -0.9773      9.978000
  2832          H    236     DC    H41   2832     0.4314      3.024000
  2833          H    236     DC    H42   2833     0.4314      3.024000
  2834         NC    236     DC     N3   2834    -0.7748      14.010000
  2835          C    236     DC     C2   2835     0.7959      12.010000
  2836          O    236     DC     O2   2836    -0.6548         16.000000
  2837         C7    236     DC    C3'   2837     0.0713      9.994000
  2838         H1    236     DC    H3'   2838     0.0985      3.024000
  2839         CT    236     DC    C2'   2839    -0.0854      7.978000
  2840         HC    236     DC   H2'1   2840     0.0718      3.024000
  2841         HC    236     DC   H2'2   2841     0.0718      3.024000
  2842         OS    236     DC    O3'   2842    -0.5232         16.000000   ; qtot -89.31
; residue 237 DG  rtp DG   q -1.0
  2843          P    237     DG      P   2843     1.1659      30.970000
  2844         O2    237     DG    O1P   2844    -0.7761         16.000000
  2845         O2    237     DG    O2P   2845    -0.7761         16.000000
  2846         OS    237     DG    O5'   2846    -0.4954         16.000000
  2847         CJ    237     DG    C5'   2847    -0.0069      7.978000
  2848         H1    237     DG   H5'1   2848     0.0754      3.024000
  2849         H1    237     DG   H5'2   2849     0.0754      3.024000
  2850         CT    237     DG    C4'   2850     0.1629      9.994000
  2851         H1    237     DG    H4'   2851     0.1176      3.024000
  2852         OS    237     DG    O4'   2852    -0.3691         16.000000
  2853         CT    237     DG    C1'   2853     0.0358      9.994000
  2854         H2    237     DG    H1'   2854     0.1746      3.024000
  2855         N*    237     DG     N9   2855     0.0577      14.010000
  2856         CK    237     DG     C8   2856     0.0736      9.994000
  2857         H5    237     DG     H8   2857     0.1997      3.024000
  2858         NB    237     DG     N7   2858    -0.5725      14.010000
  2859         CB    237     DG     C5   2859     0.1991      12.010000
  2860          C    237     DG     C6   2860     0.4918      12.010000
  2861          O    237     DG     O6   2861    -0.5699         16.000000
  2862         NA    237     DG     N1   2862    -0.5053      11.994000
  2863          H    237     DG     H1   2863      0.352      3.024000
  2864         CA    237     DG     C2   2864     0.7432      12.010000
  2865         N2    237     DG     N2   2865     -0.923      9.978000
  2866          H    237     DG    H21   2866     0.4235      3.024000
  2867          H    237     DG    H22   2867     0.4235      3.024000
  2868         NC    237     DG     N3   2868    -0.6636      14.010000
  2869         CB    237     DG     C4   2869     0.1814      12.010000
  2870         C7    237     DG    C3'   2870     0.0713      9.994000
  2871         H1    237     DG    H3'   2871     0.0985      3.024000
  2872         CT    237     DG    C2'   2872    -0.0854      7.978000
  2873         HC    237     DG   H2'1   2873     0.0718      3.024000
  2874         HC    237     DG   H2'2   2874     0.0718      3.024000
  2875         OS    237     DG    O3'   2875    -0.5232         16.000000   ; qtot -90.31
; residue 238 DC  rtp DC   q -1.0
  2876          P    238     DC      P   2876     1.1659      30.970000
  2877         O2    238     DC    O1P   2877    -0.7761         16.000000
  2878         O2    238     DC    O2P   2878    -0.7761         16.000000
  2879         OS    238     DC    O5'   2879    -0.4954         16.000000
  2880         CJ    238     DC    C5'   2880    -0.0069      7.978000
  2881         H1    238     DC   H5'1   2881     0.0754      3.024000
  2882         H1    238     DC   H5'2   2882     0.0754      3.024000
  2883         CT    238     DC    C4'   2883     0.1629      9.994000
  2884         H1    238     DC    H4'   2884     0.1176      3.024000
  2885         OS    238     DC    O4'   2885    -0.3691         16.000000
  2886         CT    238     DC    C1'   2886    -0.0116      9.994000
  2887         H2    238     DC    H1'   2887     0.1963      3.024000
  2888         N*    238     DC     N1   2888    -0.0339      14.010000
  2889         C1    238     DC     C6   2889    -0.0183      9.994000
  2890         H4    238     DC     H6   2890     0.2293      3.024000
  2891         C1    238     DC     C5   2891    -0.5222      9.994000
  2892         HA    238     DC     H5   2892     0.1863      3.024000
  2893         CA    238     DC     C4   2893     0.8439      12.010000
  2894         N2    238     DC     N4   2894    -0.9773      9.978000
  2895          H    238     DC    H41   2895     0.4314      3.024000
  2896          H    238     DC    H42   2896     0.4314      3.024000
  2897         NC    238     DC     N3   2897    -0.7748      14.010000
  2898          C    238     DC     C2   2898     0.7959      12.010000
  2899          O    238     DC     O2   2899    -0.6548         16.000000
  2900         C7    238     DC    C3'   2900     0.0713      9.994000
  2901         H1    238     DC    H3'   2901     0.0985      3.024000
  2902         CT    238     DC    C2'   2902    -0.0854      7.978000
  2903         HC    238     DC   H2'1   2903     0.0718      3.024000
  2904         HC    238     DC   H2'2   2904     0.0718      3.024000
  2905         OS    238     DC    O3'   2905    -0.5232         16.000000   ; qtot -91.31
; residue 239 DC  rtp DC   q -1.0
  2906          P    239     DC      P   2906     1.1659      30.970000
  2907         O2    239     DC    O1P   2907    -0.7761         16.000000
  2908         O2    239     DC    O2P   2908    -0.7761         16.000000
  2909         OS    239     DC    O5'   2909    -0.4954         16.000000
  2910         CJ    239     DC    C5'   2910    -0.0069      7.978000
  2911         H1    239     DC   H5'1   2911     0.0754      3.024000
  2912         H1    239     DC   H5'2   2912     0.0754      3.024000
  2913         CT    239     DC    C4'   2913     0.1629      9.994000
  2914         H1    239     DC    H4'   2914     0.1176      3.024000
  2915         OS    239     DC    O4'   2915    -0.3691         16.000000
  2916         CT    239     DC    C1'   2916    -0.0116      9.994000
  2917         H2    239     DC    H1'   2917     0.1963      3.024000
  2918         N*    239     DC     N1   2918    -0.0339      14.010000
  2919         C1    239     DC     C6   2919    -0.0183      9.994000
  2920         H4    239     DC     H6   2920     0.2293      3.024000
  2921         C1    239     DC     C5   2921    -0.5222      9.994000
  2922         HA    239     DC     H5   2922     0.1863      3.024000
  2923         CA    239     DC     C4   2923     0.8439      12.010000
  2924         N2    239     DC     N4   2924    -0.9773      9.978000
  2925          H    239     DC    H41   2925     0.4314      3.024000
  2926          H    239     DC    H42   2926     0.4314      3.024000
  2927         NC    239     DC     N3   2927    -0.7748      14.010000
  2928          C    239     DC     C2   2928     0.7959      12.010000
  2929          O    239     DC     O2   2929    -0.6548         16.000000
  2930         C7    239     DC    C3'   2930     0.0713      9.994000
  2931         H1    239     DC    H3'   2931     0.0985      3.024000
  2932         CT    239     DC    C2'   2932    -0.0854      7.978000
  2933         HC    239     DC   H2'1   2933     0.0718      3.024000
  2934         HC    239     DC   H2'2   2934     0.0718      3.024000
  2935         OS    239     DC    O3'   2935    -0.5232         16.000000   ; qtot -92.31
; residue 240 DG  rtp DG   q -1.0
  2936          P    240     DG      P   2936     1.1659      30.970000
  2937         O2    240     DG    O1P   2937    -0.7761         16.000000
  2938         O2    240     DG    O2P   2938    -0.7761         16.000000
  2939         OS    240     DG    O5'   2939    -0.4954         16.000000
  2940         CJ    240     DG    C5'   2940    -0.0069      7.978000
  2941         H1    240     DG   H5'1   2941     0.0754      3.024000
  2942         H1    240     DG   H5'2   2942     0.0754      3.024000
  2943         CT    240     DG    C4'   2943     0.1629      9.994000
  2944         H1    240     DG    H4'   2944     0.1176      3.024000
  2945         OS    240     DG    O4'   2945    -0.3691         16.000000
  2946         CT    240     DG    C1'   2946     0.0358      9.994000
  2947         H2    240     DG    H1'   2947     0.1746      3.024000
  2948         N*    240     DG     N9   2948     0.0577      14.010000
  2949         CK    240     DG     C8   2949     0.0736      9.994000
  2950         H5    240     DG     H8   2950     0.1997      3.024000
  2951         NB    240     DG     N7   2951    -0.5725      14.010000
  2952         CB    240     DG     C5   2952     0.1991      12.010000
  2953          C    240     DG     C6   2953     0.4918      12.010000
  2954          O    240     DG     O6   2954    -0.5699         16.000000
  2955         NA    240     DG     N1   2955    -0.5053      11.994000
  2956          H    240     DG     H1   2956      0.352      3.024000
  2957         CA    240     DG     C2   2957     0.7432      12.010000
  2958         N2    240     DG     N2   2958     -0.923      9.978000
  2959          H    240     DG    H21   2959     0.4235      3.024000
  2960          H    240     DG    H22   2960     0.4235      3.024000
  2961         NC    240     DG     N3   2961    -0.6636      14.010000
  2962         CB    240     DG     C4   2962     0.1814      12.010000
  2963         C7    240     DG    C3'   2963     0.0713      9.994000
  2964         H1    240     DG    H3'   2964     0.0985      3.024000
  2965         CT    240     DG    C2'   2965    -0.0854      7.978000
  2966         HC    240     DG   H2'1   2966     0.0718      3.024000
  2967         HC    240     DG   H2'2   2967     0.0718      3.024000
  2968         OS    240     DG    O3'   2968    -0.5232         16.000000   ; qtot -93.31
; residue 241 DC  rtp DC   q -1.0
  2969          P    241     DC      P   2969     1.1659      30.970000
  2970         O2    241     DC    O1P   2970    -0.7761         16.000000
  2971         O2    241     DC    O2P   2971    -0.7761         16.000000
  2972         OS    241     DC    O5'   2972    -0.4954         16.000000
  2973         CJ    241     DC    C5'   2973    -0.0069      7.978000
  2974         H1    241     DC   H5'1   2974     0.0754      3.024000
  2975         H1    241     DC   H5'2   2975     0.0754      3.024000
  2976         CT    241     DC    C4'   2976     0.1629      9.994000
  2977         H1    241     DC    H4'   2977     0.1176      3.024000
  2978         OS    241     DC    O4'   2978    -0.3691         16.000000
  2979         CT    241     DC    C1'   2979    -0.0116      9.994000
  2980         H2    241     DC    H1'   2980     0.1963      3.024000
  2981         N*    241     DC     N1   2981    -0.0339      14.010000
  2982         C1    241     DC     C6   2982    -0.0183      9.994000
  2983         H4    241     DC     H6   2983     0.2293      3.024000
  2984         C1    241     DC     C5   2984    -0.5222      9.994000
  2985         HA    241     DC     H5   2985     0.1863      3.024000
  2986         CA    241     DC     C4   2986     0.8439      12.010000
  2987         N2    241     DC     N4   2987    -0.9773      9.978000
  2988          H    241     DC    H41   2988     0.4314      3.024000
  2989          H    241     DC    H42   2989     0.4314      3.024000
  2990         NC    241     DC     N3   2990    -0.7748      14.010000
  2991          C    241     DC     C2   2991     0.7959      12.010000
  2992          O    241     DC     O2   2992    -0.6548         16.000000
  2993         C7    241     DC    C3'   2993     0.0713      9.994000
  2994         H1    241     DC    H3'   2994     0.0985      3.024000
  2995         CT    241     DC    C2'   2995    -0.0854      7.978000
  2996         HC    241     DC   H2'1   2996     0.0718      3.024000
  2997         HC    241     DC   H2'2   2997     0.0718      3.024000
  2998         OS    241     DC    O3'   2998    -0.5232         16.000000   ; qtot -94.31
; residue 242 DC  rtp DC   q -1.0
  2999          P    242     DC      P   2999     1.1659      30.970000
  3000         O2    242     DC    O1P   3000    -0.7761         16.000000
  3001         O2    242     DC    O2P   3001    -0.7761         16.000000
  3002         OS    242     DC    O5'   3002    -0.4954         16.000000
  3003         CJ    242     DC    C5'   3003    -0.0069      7.978000
  3004         H1    242     DC   H5'1   3004     0.0754      3.024000
  3005         H1    242     DC   H5'2   3005     0.0754      3.024000
  3006         CT    242     DC    C4'   3006     0.1629      9.994000
  3007         H1    242     DC    H4'   3007     0.1176      3.024000
  3008         OS    242     DC    O4'   3008    -0.3691         16.000000
  3009         CT    242     DC    C1'   3009    -0.0116      9.994000
  3010         H2    242     DC    H1'   3010     0.1963      3.024000
  3011         N*    242     DC     N1   3011    -0.0339      14.010000
  3012         C1    242     DC     C6   3012    -0.0183      9.994000
  3013         H4    242     DC     H6   3013     0.2293      3.024000
  3014         C1    242     DC     C5   3014    -0.5222      9.994000
  3015         HA    242     DC     H5   3015     0.1863      3.024000
  3016         CA    242     DC     C4   3016     0.8439      12.010000
  3017         N2    242     DC     N4   3017    -0.9773      9.978000
  3018          H    242     DC    H41   3018     0.4314      3.024000
  3019          H    242     DC    H42   3019     0.4314      3.024000
  3020         NC    242     DC     N3   3020    -0.7748      14.010000
  3021          C    242     DC     C2   3021     0.7959      12.010000
  3022          O    242     DC     O2   3022    -0.6548         16.000000
  3023         C7    242     DC    C3'   3023     0.0713      9.994000
  3024         H1    242     DC    H3'   3024     0.0985      3.024000
  3025         CT    242     DC    C2'   3025    -0.0854      7.978000
  3026         HC    242     DC   H2'1   3026     0.0718      3.024000
  3027         HC    242     DC   H2'2   3027     0.0718      3.024000
  3028         OS    242     DC    O3'   3028    -0.5232         16.000000   ; qtot -95.31
; residue 243 DT  rtp DT   q -1.0
  3029          P    243     DT      P   3029     1.1659      30.970000
  3030         O2    243     DT    O1P   3030    -0.7761         16.000000
  3031         O2    243     DT    O2P   3031    -0.7761         16.000000
  3032         OS    243     DT    O5'   3032    -0.4954         16.000000
  3033         CJ    243     DT    C5'   3033    -0.0069      7.978000
  3034         H1    243     DT   H5'1   3034     0.0754      3.024000
  3035         H1    243     DT   H5'2   3035     0.0754      3.024000
  3036         CT    243     DT    C4'   3036     0.1629      9.994000
  3037         H1    243     DT    H4'   3037     0.1176      3.024000
  3038         OS    243     DT    O4'   3038    -0.3691         16.000000
  3039         CT    243     DT    C1'   3039      0.068      9.994000
  3040         H2    243     DT    H1'   3040     0.1804      3.024000
  3041         N*    243     DT     N1   3041    -0.0239      14.010000
  3042         CM    243     DT     C6   3042    -0.2209      9.994000
  3043         H4    243     DT     H6   3043     0.2607      3.024000
  3044         CM    243     DT     C5   3044     0.0025      12.010000
  3045         CT    243     DT     C7   3045    -0.2269      5.962000
  3046         HC    243     DT    H71   3046      0.077      3.024000
  3047         HC    243     DT    H72   3047      0.077      3.024000
  3048         HC    243     DT    H73   3048      0.077      3.024000
  3049          C    243     DT     C4   3049     0.5194      12.010000
  3050          O    243     DT     O4   3050    -0.5563         16.000000
  3051         NA    243     DT     N3   3051     -0.434      11.994000
  3052          H    243     DT     H3   3052      0.342      3.024000
  3053          C    243     DT     C2   3053     0.5677      12.010000
  3054          O    243     DT     O2   3054    -0.5881         16.000000
  3055         C7    243     DT    C3'   3055     0.0713      9.994000
  3056         H1    243     DT    H3'   3056     0.0985      3.024000
  3057         CT    243     DT    C2'   3057    -0.0854      7.978000
  3058         HC    243     DT   H2'1   3058     0.0718      3.024000
  3059         HC    243     DT   H2'2   3059     0.0718      3.024000
  3060         OS    243     DT    O3'   3060    -0.5232         16.000000   ; qtot -96.31
; residue 244 DT  rtp DT   q -1.0
  3061          P    244     DT      P   3061     1.1659      30.970000
  3062         O2    244     DT    O1P   3062    -0.7761         16.000000
  3063         O2    244     DT    O2P   3063    -0.7761         16.000000
  3064         OS    244     DT    O5'   3064    -0.4954         16.000000
  3065         CJ    244     DT    C5'   3065    -0.0069      7.978000
  3066         H1    244     DT   H5'1   3066     0.0754      3.024000
  3067         H1    244     DT   H5'2   3067     0.0754      3.024000
  3068         CT    244     DT    C4'   3068     0.1629      9.994000
  3069         H1    244     DT    H4'   3069     0.1176      3.024000
  3070         OS    244     DT    O4'   3070    -0.3691         16.000000
  3071         CT    244     DT    C1'   3071      0.068      9.994000
  3072         H2    244     DT    H1'   3072     0.1804      3.024000
  3073         N*    244     DT     N1   3073    -0.0239      14.010000
  3074         CM    244     DT     C6   3074    -0.2209      9.994000
  3075         H4    244     DT     H6   3075     0.2607      3.024000
  3076         CM    244     DT     C5   3076     0.0025      12.010000
  3077         CT    244     DT     C7   3077    -0.2269      5.962000
  3078         HC    244     DT    H71   3078      0.077      3.024000
  3079         HC    244     DT    H72   3079      0.077      3.024000
  3080         HC    244     DT    H73   3080      0.077      3.024000
  3081          C    244     DT     C4   3081     0.5194      12.010000
  3082          O    244     DT     O4   3082    -0.5563         16.000000
  3083         NA    244     DT     N3   3083     -0.434      11.994000
  3084          H    244     DT     H3   3084      0.342      3.024000
  3085          C    244     DT     C2   3085     0.5677      12.010000
  3086          O    244     DT     O2   3086    -0.5881         16.000000
  3087         C7    244     DT    C3'   3087     0.0713      9.994000
  3088         H1    244     DT    H3'   3088     0.0985      3.024000
  3089         CT    244     DT    C2'   3089    -0.0854      7.978000
  3090         HC    244     DT   H2'1   3090     0.0718      3.024000
  3091         HC    244     DT   H2'2   3091     0.0718      3.024000
  3092         OS    244     DT    O3'   3092    -0.5232         16.000000   ; qtot -97.31
; residue 245 DC  rtp DC   q -1.0
  3093          P    245     DC      P   3093     1.1659      30.970000
  3094         O2    245     DC    O1P   3094    -0.7761         16.000000
  3095         O2    245     DC    O2P   3095    -0.7761         16.000000
  3096         OS    245     DC    O5'   3096    -0.4954         16.000000
  3097         CJ    245     DC    C5'   3097    -0.0069      7.978000
  3098         H1    245     DC   H5'1   3098     0.0754      3.024000
  3099         H1    245     DC   H5'2   3099     0.0754      3.024000
  3100         CT    245     DC    C4'   3100     0.1629      9.994000
  3101         H1    245     DC    H4'   3101     0.1176      3.024000
  3102         OS    245     DC    O4'   3102    -0.3691         16.000000
  3103         CT    245     DC    C1'   3103    -0.0116      9.994000
  3104         H2    245     DC    H1'   3104     0.1963      3.024000
  3105         N*    245     DC     N1   3105    -0.0339      14.010000
  3106         C1    245     DC     C6   3106    -0.0183      9.994000
  3107         H4    245     DC     H6   3107     0.2293      3.024000
  3108         C1    245     DC     C5   3108    -0.5222      9.994000
  3109         HA    245     DC     H5   3109     0.1863      3.024000
  3110         CA    245     DC     C4   3110     0.8439      12.010000
  3111         N2    245     DC     N4   3111    -0.9773      9.978000
  3112          H    245     DC    H41   3112     0.4314      3.024000
  3113          H    245     DC    H42   3113     0.4314      3.024000
  3114         NC    245     DC     N3   3114    -0.7748      14.010000
  3115          C    245     DC     C2   3115     0.7959      12.010000
  3116          O    245     DC     O2   3116    -0.6548         16.000000
  3117         C7    245     DC    C3'   3117     0.0713      9.994000
  3118         H1    245     DC    H3'   3118     0.0985      3.024000
  3119         CT    245     DC    C2'   3119    -0.0854      7.978000
  3120         HC    245     DC   H2'1   3120     0.0718      3.024000
  3121         HC    245     DC   H2'2   3121     0.0718      3.024000
  3122         OS    245     DC    O3'   3122    -0.5232         16.000000   ; qtot -98.31
; residue 246 DA  rtp DA   q -1.0
  3123          P    246     DA      P   3123     1.1659      30.970000
  3124         O2    246     DA    O1P   3124    -0.7761         16.000000
  3125         O2    246     DA    O2P   3125    -0.7761         16.000000
  3126         OS    246     DA    O5'   3126    -0.4954         16.000000
  3127         CJ    246     DA    C5'   3127    -0.0069      7.978000
  3128         H1    246     DA   H5'1   3128     0.0754      3.024000
  3129         H1    246     DA   H5'2   3129     0.0754      3.024000
  3130         CT    246     DA    C4'   3130     0.1629      9.994000
  3131         H1    246     DA    H4'   3131     0.1176      3.024000
  3132         OS    246     DA    O4'   3132    -0.3691         16.000000
  3133         CT    246     DA    C1'   3133     0.0431      9.994000
  3134         H2    246     DA    H1'   3134     0.1838      3.024000
  3135         N*    246     DA     N9   3135    -0.0268      14.010000
  3136         C2    246     DA     C8   3136     0.1607      9.994000
  3137         H5    246     DA     H8   3137     0.1877      3.024000
  3138         NB    246     DA     N7   3138    -0.6175      14.010000
  3139         CB    246     DA     C5   3139     0.0725      12.010000
  3140         CA    246     DA     C6   3140     0.6897      12.010000
  3141         N2    246     DA     N6   3141    -0.9123      9.978000
  3142          H    246     DA    H61   3142     0.4167      3.024000
  3143          H    246     DA    H62   3143     0.4167      3.024000
  3144         NC    246     DA     N1   3144    -0.7624      14.010000
  3145         CQ    246     DA     C2   3145     0.5716      9.994000
  3146         H5    246     DA     H2   3146     0.0598      3.024000
  3147         NC    246     DA     N3   3147    -0.7417      14.010000
  3148         CB    246     DA     C4   3148       0.38      12.010000
  3149         C7    246     DA    C3'   3149     0.0713      9.994000
  3150         H1    246     DA    H3'   3150     0.0985      3.024000
  3151         CT    246     DA    C2'   3151    -0.0854      7.978000
  3152         HC    246     DA   H2'1   3152     0.0718      3.024000
  3153         HC    246     DA   H2'2   3153     0.0718      3.024000
  3154         OS    246     DA    O3'   3154    -0.5232         16.000000   ; qtot -99.31
; residue 247 DG  rtp DG   q -1.0
  3155          P    247     DG      P   3155     1.1659      30.970000
  3156         O2    247     DG    O1P   3156    -0.7761         16.000000
  3157         O2    247     DG    O2P   3157    -0.7761         16.000000
  3158         OS    247     DG    O5'   3158    -0.4954         16.000000
  3159         CJ    247     DG    C5'   3159    -0.0069      7.978000
  3160         H1    247     DG   H5'1   3160     0.0754      3.024000
  3161         H1    247     DG   H5'2   3161     0.0754      3.024000
  3162         CT    247     DG    C4'   3162     0.1629      9.994000
  3163         H1    247     DG    H4'   3163     0.1176      3.024000
  3164         OS    247     DG    O4'   3164    -0.3691         16.000000
  3165         CT    247     DG    C1'   3165     0.0358      9.994000
  3166         H2    247     DG    H1'   3166     0.1746      3.024000
  3167         N*    247     DG     N9   3167     0.0577      14.010000
  3168         CK    247     DG     C8   3168     0.0736      9.994000
  3169         H5    247     DG     H8   3169     0.1997      3.024000
  3170         NB    247     DG     N7   3170    -0.5725      14.010000
  3171         CB    247     DG     C5   3171     0.1991      12.010000
  3172          C    247     DG     C6   3172     0.4918      12.010000
  3173          O    247     DG     O6   3173    -0.5699         16.000000
  3174         NA    247     DG     N1   3174    -0.5053      11.994000
  3175          H    247     DG     H1   3175      0.352      3.024000
  3176         CA    247     DG     C2   3176     0.7432      12.010000
  3177         N2    247     DG     N2   3177     -0.923      9.978000
  3178          H    247     DG    H21   3178     0.4235      3.024000
  3179          H    247     DG    H22   3179     0.4235      3.024000
  3180         NC    247     DG     N3   3180    -0.6636      14.010000
  3181         CB    247     DG     C4   3181     0.1814      12.010000
  3182         C7    247     DG    C3'   3182     0.0713      9.994000
  3183         H1    247     DG    H3'   3183     0.0985      3.024000
  3184         CT    247     DG    C2'   3184    -0.0854      7.978000
  3185         HC    247     DG   H2'1   3185     0.0718      3.024000
  3186         HC    247     DG   H2'2   3186     0.0718      3.024000
  3187         OS    247     DG    O3'   3187    -0.5232         16.000000   ; qtot -100.3
; residue 248 DT  rtp DT   q -1.0
  3188          P    248     DT      P   3188     1.1659      30.970000
  3189         O2    248     DT    O1P   3189    -0.7761         16.000000
  3190         O2    248     DT    O2P   3190    -0.7761         16.000000
  3191         OS    248     DT    O5'   3191    -0.4954         16.000000
  3192         CJ    248     DT    C5'   3192    -0.0069      7.978000
  3193         H1    248     DT   H5'1   3193     0.0754      3.024000
  3194         H1    248     DT   H5'2   3194     0.0754      3.024000
  3195         CT    248     DT    C4'   3195     0.1629      9.994000
  3196         H1    248     DT    H4'   3196     0.1176      3.024000
  3197         OS    248     DT    O4'   3197    -0.3691         16.000000
  3198         CT    248     DT    C1'   3198      0.068      9.994000
  3199         H2    248     DT    H1'   3199     0.1804      3.024000
  3200         N*    248     DT     N1   3200    -0.0239      14.010000
  3201         CM    248     DT     C6   3201    -0.2209      9.994000
  3202         H4    248     DT     H6   3202     0.2607      3.024000
  3203         CM    248     DT     C5   3203     0.0025      12.010000
  3204         CT    248     DT     C7   3204    -0.2269      5.962000
  3205         HC    248     DT    H71   3205      0.077      3.024000
  3206         HC    248     DT    H72   3206      0.077      3.024000
  3207         HC    248     DT    H73   3207      0.077      3.024000
  3208          C    248     DT     C4   3208     0.5194      12.010000
  3209          O    248     DT     O4   3209    -0.5563         16.000000
  3210         NA    248     DT     N3   3210     -0.434      11.994000
  3211          H    248     DT     H3   3211      0.342      3.024000
  3212          C    248     DT     C2   3212     0.5677      12.010000
  3213          O    248     DT     O2   3213    -0.5881         16.000000
  3214         C7    248     DT    C3'   3214     0.0713      9.994000
  3215         H1    248     DT    H3'   3215     0.0985      3.024000
  3216         CT    248     DT    C2'   3216    -0.0854      7.978000
  3217         HC    248     DT   H2'1   3217     0.0718      3.024000
  3218         HC    248     DT   H2'2   3218     0.0718      3.024000
  3219         OS    248     DT    O3'   3219    -0.5232         16.000000   ; qtot -101.3
; residue 249 DG  rtp DG   q -1.0
  3220          P    249     DG      P   3220     1.1659      30.970000
  3221         O2    249     DG    O1P   3221    -0.7761         16.000000
  3222         O2    249     DG    O2P   3222    -0.7761         16.000000
  3223         OS    249     DG    O5'   3223    -0.4954         16.000000
  3224         CJ    249     DG    C5'   3224    -0.0069      7.978000
  3225         H1    249     DG   H5'1   3225     0.0754      3.024000
  3226         H1    249     DG   H5'2   3226     0.0754      3.024000
  3227         CT    249     DG    C4'   3227     0.1629      9.994000
  3228         H1    249     DG    H4'   3228     0.1176      3.024000
  3229         OS    249     DG    O4'   3229    -0.3691         16.000000
  3230         CT    249     DG    C1'   3230     0.0358      9.994000
  3231         H2    249     DG    H1'   3231     0.1746      3.024000
  3232         N*    249     DG     N9   3232     0.0577      14.010000
  3233         CK    249     DG     C8   3233     0.0736      9.994000
  3234         H5    249     DG     H8   3234     0.1997      3.024000
  3235         NB    249     DG     N7   3235    -0.5725      14.010000
  3236         CB    249     DG     C5   3236     0.1991      12.010000
  3237          C    249     DG     C6   3237     0.4918      12.010000
  3238          O    249     DG     O6   3238    -0.5699         16.000000
  3239         NA    249     DG     N1   3239    -0.5053      11.994000
  3240          H    249     DG     H1   3240      0.352      3.024000
  3241         CA    249     DG     C2   3241     0.7432      12.010000
  3242         N2    249     DG     N2   3242     -0.923      9.978000
  3243          H    249     DG    H21   3243     0.4235      3.024000
  3244          H    249     DG    H22   3244     0.4235      3.024000
  3245         NC    249     DG     N3   3245    -0.6636      14.010000
  3246         CB    249     DG     C4   3246     0.1814      12.010000
  3247         C7    249     DG    C3'   3247     0.0713      9.994000
  3248         H1    249     DG    H3'   3248     0.0985      3.024000
  3249         CT    249     DG    C2'   3249    -0.0854      7.978000
  3250         HC    249     DG   H2'1   3250     0.0718      3.024000
  3251         HC    249     DG   H2'2   3251     0.0718      3.024000
  3252         OS    249     DG    O3'   3252    -0.5232         16.000000   ; qtot -102.3
; residue 250 DC  rtp DC   q -1.0
  3253          P    250     DC      P   3253     1.1659      30.970000
  3254         O2    250     DC    O1P   3254    -0.7761         16.000000
  3255         O2    250     DC    O2P   3255    -0.7761         16.000000
  3256         OS    250     DC    O5'   3256    -0.4954         16.000000
  3257         CJ    250     DC    C5'   3257    -0.0069      7.978000
  3258         H1    250     DC   H5'1   3258     0.0754      3.024000
  3259         H1    250     DC   H5'2   3259     0.0754      3.024000
  3260         CT    250     DC    C4'   3260     0.1629      9.994000
  3261         H1    250     DC    H4'   3261     0.1176      3.024000
  3262         OS    250     DC    O4'   3262    -0.3691         16.000000
  3263         CT    250     DC    C1'   3263    -0.0116      9.994000
  3264         H2    250     DC    H1'   3264     0.1963      3.024000
  3265         N*    250     DC     N1   3265    -0.0339      14.010000
  3266         C1    250     DC     C6   3266    -0.0183      9.994000
  3267         H4    250     DC     H6   3267     0.2293      3.024000
  3268         C1    250     DC     C5   3268    -0.5222      9.994000
  3269         HA    250     DC     H5   3269     0.1863      3.024000
  3270         CA    250     DC     C4   3270     0.8439      12.010000
  3271         N2    250     DC     N4   3271    -0.9773      9.978000
  3272          H    250     DC    H41   3272     0.4314      3.024000
  3273          H    250     DC    H42   3273     0.4314      3.024000
  3274         NC    250     DC     N3   3274    -0.7748      14.010000
  3275          C    250     DC     C2   3275     0.7959      12.010000
  3276          O    250     DC     O2   3276    -0.6548         16.000000
  3277         C7    250     DC    C3'   3277     0.0713      9.994000
  3278         H1    250     DC    H3'   3278     0.0985      3.024000
  3279         CT    250     DC    C2'   3279    -0.0854      7.978000
  3280         HC    250     DC   H2'1   3280     0.0718      3.024000
  3281         HC    250     DC   H2'2   3281     0.0718      3.024000
  3282         OS    250     DC    O3'   3282    -0.5232         16.000000   ; qtot -103.3
; residue 251 DC  rtp DC   q -1.0
  3283          P    251     DC      P   3283     1.1659      30.970000
  3284         O2    251     DC    O1P   3284    -0.7761         16.000000
  3285         O2    251     DC    O2P   3285    -0.7761         16.000000
  3286         OS    251     DC    O5'   3286    -0.4954         16.000000
  3287         CJ    251     DC    C5'   3287    -0.0069      7.978000
  3288         H1    251     DC   H5'1   3288     0.0754      3.024000
  3289         H1    251     DC   H5'2   3289     0.0754      3.024000
  3290         CT    251     DC    C4'   3290     0.1629      9.994000
  3291         H1    251     DC    H4'   3291     0.1176      3.024000
  3292         OS    251     DC    O4'   3292    -0.3691         16.000000
  3293         CT    251     DC    C1'   3293    -0.0116      9.994000
  3294         H2    251     DC    H1'   3294     0.1963      3.024000
  3295         N*    251     DC     N1   3295    -0.0339      14.010000
  3296         C1    251     DC     C6   3296    -0.0183      9.994000
  3297         H4    251     DC     H6   3297     0.2293      3.024000
  3298         C1    251     DC     C5   3298    -0.5222      9.994000
  3299         HA    251     DC     H5   3299     0.1863      3.024000
  3300         CA    251     DC     C4   3300     0.8439      12.010000
  3301         N2    251     DC     N4   3301    -0.9773      9.978000
  3302          H    251     DC    H41   3302     0.4314      3.024000
  3303          H    251     DC    H42   3303     0.4314      3.024000
  3304         NC    251     DC     N3   3304    -0.7748      14.010000
  3305          C    251     DC     C2   3305     0.7959      12.010000
  3306          O    251     DC     O2   3306    -0.6548         16.000000
  3307         C7    251     DC    C3'   3307     0.0713      9.994000
  3308         H1    251     DC    H3'   3308     0.0985      3.024000
  3309         CT    251     DC    C2'   3309    -0.0854      7.978000
  3310         HC    251     DC   H2'1   3310     0.0718      3.024000
  3311         HC    251     DC   H2'2   3311     0.0718      3.024000
  3312         OS    251     DC    O3'   3312    -0.5232         16.000000   ; qtot -104.3
; residue 252 DT  rtp DT   q -1.0
  3313          P    252     DT      P   3313     1.1659      30.970000
  3314         O2    252     DT    O1P   3314    -0.7761         16.000000
  3315         O2    252     DT    O2P   3315    -0.7761         16.000000
  3316         OS    252     DT    O5'   3316    -0.4954         16.000000
  3317         CJ    252     DT    C5'   3317    -0.0069      7.978000
  3318         H1    252     DT   H5'1   3318     0.0754      3.024000
  3319         H1    252     DT   H5'2   3319     0.0754      3.024000
  3320         CT    252     DT    C4'   3320     0.1629      9.994000
  3321         H1    252     DT    H4'   3321     0.1176      3.024000
  3322         OS    252     DT    O4'   3322    -0.3691         16.000000
  3323         CT    252     DT    C1'   3323      0.068      9.994000
  3324         H2    252     DT    H1'   3324     0.1804      3.024000
  3325         N*    252     DT     N1   3325    -0.0239      14.010000
  3326         CM    252     DT     C6   3326    -0.2209      9.994000
  3327         H4    252     DT     H6   3327     0.2607      3.024000
  3328         CM    252     DT     C5   3328     0.0025      12.010000
  3329         CT    252     DT     C7   3329    -0.2269      5.962000
  3330         HC    252     DT    H71   3330      0.077      3.024000
  3331         HC    252     DT    H72   3331      0.077      3.024000
  3332         HC    252     DT    H73   3332      0.077      3.024000
  3333          C    252     DT     C4   3333     0.5194      12.010000
  3334          O    252     DT     O4   3334    -0.5563         16.000000
  3335         NA    252     DT     N3   3335     -0.434      11.994000
  3336          H    252     DT     H3   3336      0.342      3.024000
  3337          C    252     DT     C2   3337     0.5677      12.010000
  3338          O    252     DT     O2   3338    -0.5881         16.000000
  3339         C7    252     DT    C3'   3339     0.0713      9.994000
  3340         H1    252     DT    H3'   3340     0.0985      3.024000
  3341         CT    252     DT    C2'   3341    -0.0854      7.978000
  3342         HC    252     DT   H2'1   3342     0.0718      3.024000
  3343         HC    252     DT   H2'2   3343     0.0718      3.024000
  3344         OS    252     DT    O3'   3344    -0.5232         16.000000   ; qtot -105.3
; residue 253 DG  rtp DG   q -1.0
  3345          P    253     DG      P   3345     1.1659      30.970000
  3346         O2    253     DG    O1P   3346    -0.7761         16.000000
  3347         O2    253     DG    O2P   3347    -0.7761         16.000000
  3348         OS    253     DG    O5'   3348    -0.4954         16.000000
  3349         CJ    253     DG    C5'   3349    -0.0069      7.978000
  3350         H1    253     DG   H5'1   3350     0.0754      3.024000
  3351         H1    253     DG   H5'2   3351     0.0754      3.024000
  3352         CT    253     DG    C4'   3352     0.1629      9.994000
  3353         H1    253     DG    H4'   3353     0.1176      3.024000
  3354         OS    253     DG    O4'   3354    -0.3691         16.000000
  3355         CT    253     DG    C1'   3355     0.0358      9.994000
  3356         H2    253     DG    H1'   3356     0.1746      3.024000
  3357         N*    253     DG     N9   3357     0.0577      14.010000
  3358         CK    253     DG     C8   3358     0.0736      9.994000
  3359         H5    253     DG     H8   3359     0.1997      3.024000
  3360         NB    253     DG     N7   3360    -0.5725      14.010000
  3361         CB    253     DG     C5   3361     0.1991      12.010000
  3362          C    253     DG     C6   3362     0.4918      12.010000
  3363          O    253     DG     O6   3363    -0.5699         16.000000
  3364         NA    253     DG     N1   3364    -0.5053      11.994000
  3365          H    253     DG     H1   3365      0.352      3.024000
  3366         CA    253     DG     C2   3366     0.7432      12.010000
  3367         N2    253     DG     N2   3367     -0.923      9.978000
  3368          H    253     DG    H21   3368     0.4235      3.024000
  3369          H    253     DG    H22   3369     0.4235      3.024000
  3370         NC    253     DG     N3   3370    -0.6636      14.010000
  3371         CB    253     DG     C4   3371     0.1814      12.010000
  3372         C7    253     DG    C3'   3372     0.0713      9.994000
  3373         H1    253     DG    H3'   3373     0.0985      3.024000
  3374         CT    253     DG    C2'   3374    -0.0854      7.978000
  3375         HC    253     DG   H2'1   3375     0.0718      3.024000
  3376         HC    253     DG   H2'2   3376     0.0718      3.024000
  3377         OS    253     DG    O3'   3377    -0.5232         16.000000   ; qtot -106.3
; residue 254 DC  rtp DC   q -1.0
  3378          P    254     DC      P   3378     1.1659      30.970000
  3379         O2    254     DC    O1P   3379    -0.7761         16.000000
  3380         O2    254     DC    O2P   3380    -0.7761         16.000000
  3381         OS    254     DC    O5'   3381    -0.4954         16.000000
  3382         CJ    254     DC    C5'   3382    -0.0069      7.978000
  3383         H1    254     DC   H5'1   3383     0.0754      3.024000
  3384         H1    254     DC   H5'2   3384     0.0754      3.024000
  3385         CT    254     DC    C4'   3385     0.1629      9.994000
  3386         H1    254     DC    H4'   3386     0.1176      3.024000
  3387         OS    254     DC    O4'   3387    -0.3691         16.000000
  3388         CT    254     DC    C1'   3388    -0.0116      9.994000
  3389         H2    254     DC    H1'   3389     0.1963      3.024000
  3390         N*    254     DC     N1   3390    -0.0339      14.010000
  3391         C1    254     DC     C6   3391    -0.0183      9.994000
  3392         H4    254     DC     H6   3392     0.2293      3.024000
  3393         C1    254     DC     C5   3393    -0.5222      9.994000
  3394         HA    254     DC     H5   3394     0.1863      3.024000
  3395         CA    254     DC     C4   3395     0.8439      12.010000
  3396         N2    254     DC     N4   3396    -0.9773      9.978000
  3397          H    254     DC    H41   3397     0.4314      3.024000
  3398          H    254     DC    H42   3398     0.4314      3.024000
  3399         NC    254     DC     N3   3399    -0.7748      14.010000
  3400          C    254     DC     C2   3400     0.7959      12.010000
  3401          O    254     DC     O2   3401    -0.6548         16.000000
  3402         C7    254     DC    C3'   3402     0.0713      9.994000
  3403         H1    254     DC    H3'   3403     0.0985      3.024000
  3404         CT    254     DC    C2'   3404    -0.0854      7.978000
  3405         HC    254     DC   H2'1   3405     0.0718      3.024000
  3406         HC    254     DC   H2'2   3406     0.0718      3.024000
  3407         OS    254     DC    O3'   3407    -0.5232         16.000000   ; qtot -107.3
; residue 255 DG  rtp DG   q -1.0
  3408          P    255     DG      P   3408     1.1659      30.970000
  3409         O2    255     DG    O1P   3409    -0.7761         16.000000
  3410         O2    255     DG    O2P   3410    -0.7761         16.000000
  3411         OS    255     DG    O5'   3411    -0.4954         16.000000
  3412         CJ    255     DG    C5'   3412    -0.0069      7.978000
  3413         H1    255     DG   H5'1   3413     0.0754      3.024000
  3414         H1    255     DG   H5'2   3414     0.0754      3.024000
  3415         CT    255     DG    C4'   3415     0.1629      9.994000
  3416         H1    255     DG    H4'   3416     0.1176      3.024000
  3417         OS    255     DG    O4'   3417    -0.3691         16.000000
  3418         CT    255     DG    C1'   3418     0.0358      9.994000
  3419         H2    255     DG    H1'   3419     0.1746      3.024000
  3420         N*    255     DG     N9   3420     0.0577      14.010000
  3421         CK    255     DG     C8   3421     0.0736      9.994000
  3422         H5    255     DG     H8   3422     0.1997      3.024000
  3423         NB    255     DG     N7   3423    -0.5725      14.010000
  3424         CB    255     DG     C5   3424     0.1991      12.010000
  3425          C    255     DG     C6   3425     0.4918      12.010000
  3426          O    255     DG     O6   3426    -0.5699         16.000000
  3427         NA    255     DG     N1   3427    -0.5053      11.994000
  3428          H    255     DG     H1   3428      0.352      3.024000
  3429         CA    255     DG     C2   3429     0.7432      12.010000
  3430         N2    255     DG     N2   3430     -0.923      9.978000
  3431          H    255     DG    H21   3431     0.4235      3.024000
  3432          H    255     DG    H22   3432     0.4235      3.024000
  3433         NC    255     DG     N3   3433    -0.6636      14.010000
  3434         CB    255     DG     C4   3434     0.1814      12.010000
  3435         C7    255     DG    C3'   3435     0.0713      9.994000
  3436         H1    255     DG    H3'   3436     0.0985      3.024000
  3437         CT    255     DG    C2'   3437    -0.0854      7.978000
  3438         HC    255     DG   H2'1   3438     0.0718      3.024000
  3439         HC    255     DG   H2'2   3439     0.0718      3.024000
  3440         OS    255     DG    O3'   3440    -0.5232         16.000000   ; qtot -108.3
; residue 256 DC  rtp DC   q -1.0
  3441          P    256     DC      P   3441     1.1659      30.970000
  3442         O2    256     DC    O1P   3442    -0.7761         16.000000
  3443         O2    256     DC    O2P   3443    -0.7761         16.000000
  3444         OS    256     DC    O5'   3444    -0.4954         16.000000
  3445         CJ    256     DC    C5'   3445    -0.0069      7.978000
  3446         H1    256     DC   H5'1   3446     0.0754      3.024000
  3447         H1    256     DC   H5'2   3447     0.0754      3.024000
  3448         CT    256     DC    C4'   3448     0.1629      9.994000
  3449         H1    256     DC    H4'   3449     0.1176      3.024000
  3450         OS    256     DC    O4'   3450    -0.3691         16.000000
  3451         CT    256     DC    C1'   3451    -0.0116      9.994000
  3452         H2    256     DC    H1'   3452     0.1963      3.024000
  3453         N*    256     DC     N1   3453    -0.0339      14.010000
  3454         C1    256     DC     C6   3454    -0.0183      9.994000
  3455         H4    256     DC     H6   3455     0.2293      3.024000
  3456         C1    256     DC     C5   3456    -0.5222      9.994000
  3457         HA    256     DC     H5   3457     0.1863      3.024000
  3458         CA    256     DC     C4   3458     0.8439      12.010000
  3459         N2    256     DC     N4   3459    -0.9773      9.978000
  3460          H    256     DC    H41   3460     0.4314      3.024000
  3461          H    256     DC    H42   3461     0.4314      3.024000
  3462         NC    256     DC     N3   3462    -0.7748      14.010000
  3463          C    256     DC     C2   3463     0.7959      12.010000
  3464          O    256     DC     O2   3464    -0.6548         16.000000
  3465         C7    256     DC    C3'   3465     0.0713      9.994000
  3466         H1    256     DC    H3'   3466     0.0985      3.024000
  3467         CT    256     DC    C2'   3467    -0.0854      7.978000
  3468         HC    256     DC   H2'1   3468     0.0718      3.024000
  3469         HC    256     DC   H2'2   3469     0.0718      3.024000
  3470         OS    256     DC    O3'   3470    -0.5232         16.000000   ; qtot -109.3
; residue 257 DC  rtp DC   q -1.0
  3471          P    257     DC      P   3471     1.1659      30.970000
  3472         O2    257     DC    O1P   3472    -0.7761         16.000000
  3473         O2    257     DC    O2P   3473    -0.7761         16.000000
  3474         OS    257     DC    O5'   3474    -0.4954         16.000000
  3475         CJ    257     DC    C5'   3475    -0.0069      7.978000
  3476         H1    257     DC   H5'1   3476     0.0754      3.024000
  3477         H1    257     DC   H5'2   3477     0.0754      3.024000
  3478         CT    257     DC    C4'   3478     0.1629      9.994000
  3479         H1    257     DC    H4'   3479     0.1176      3.024000
  3480         OS    257     DC    O4'   3480    -0.3691         16.000000
  3481         CT    257     DC    C1'   3481    -0.0116      9.994000
  3482         H2    257     DC    H1'   3482     0.1963      3.024000
  3483         N*    257     DC     N1   3483    -0.0339      14.010000
  3484         C1    257     DC     C6   3484    -0.0183      9.994000
  3485         H4    257     DC     H6   3485     0.2293      3.024000
  3486         C1    257     DC     C5   3486    -0.5222      9.994000
  3487         HA    257     DC     H5   3487     0.1863      3.024000
  3488         CA    257     DC     C4   3488     0.8439      12.010000
  3489         N2    257     DC     N4   3489    -0.9773      9.978000
  3490          H    257     DC    H41   3490     0.4314      3.024000
  3491          H    257     DC    H42   3491     0.4314      3.024000
  3492         NC    257     DC     N3   3492    -0.7748      14.010000
  3493          C    257     DC     C2   3493     0.7959      12.010000
  3494          O    257     DC     O2   3494    -0.6548         16.000000
  3495         C7    257     DC    C3'   3495     0.0713      9.994000
  3496         H1    257     DC    H3'   3496     0.0985      3.024000
  3497         CT    257     DC    C2'   3497    -0.0854      7.978000
  3498         HC    257     DC   H2'1   3498     0.0718      3.024000
  3499         HC    257     DC   H2'2   3499     0.0718      3.024000
  3500         OS    257     DC    O3'   3500    -0.5232         16.000000   ; qtot -110.3
; residue 258 DG  rtp DG   q -1.0
  3501          P    258     DG      P   3501     1.1659      30.970000
  3502         O2    258     DG    O1P   3502    -0.7761         16.000000
  3503         O2    258     DG    O2P   3503    -0.7761         16.000000
  3504         OS    258     DG    O5'   3504    -0.4954         16.000000
  3505         CJ    258     DG    C5'   3505    -0.0069      7.978000
  3506         H1    258     DG   H5'1   3506     0.0754      3.024000
  3507         H1    258     DG   H5'2   3507     0.0754      3.024000
  3508         CT    258     DG    C4'   3508     0.1629      9.994000
  3509         H1    258     DG    H4'   3509     0.1176      3.024000
  3510         OS    258     DG    O4'   3510    -0.3691         16.000000
  3511         CT    258     DG    C1'   3511     0.0358      9.994000
  3512         H2    258     DG    H1'   3512     0.1746      3.024000
  3513         N*    258     DG     N9   3513     0.0577      14.010000
  3514         CK    258     DG     C8   3514     0.0736      9.994000
  3515         H5    258     DG     H8   3515     0.1997      3.024000
  3516         NB    258     DG     N7   3516    -0.5725      14.010000
  3517         CB    258     DG     C5   3517     0.1991      12.010000
  3518          C    258     DG     C6   3518     0.4918      12.010000
  3519          O    258     DG     O6   3519    -0.5699         16.000000
  3520         NA    258     DG     N1   3520    -0.5053      11.994000
  3521          H    258     DG     H1   3521      0.352      3.024000
  3522         CA    258     DG     C2   3522     0.7432      12.010000
  3523         N2    258     DG     N2   3523     -0.923      9.978000
  3524          H    258     DG    H21   3524     0.4235      3.024000
  3525          H    258     DG    H22   3525     0.4235      3.024000
  3526         NC    258     DG     N3   3526    -0.6636      14.010000
  3527         CB    258     DG     C4   3527     0.1814      12.010000
  3528         C7    258     DG    C3'   3528     0.0713      9.994000
  3529         H1    258     DG    H3'   3529     0.0985      3.024000
  3530         CT    258     DG    C2'   3530    -0.0854      7.978000
  3531         HC    258     DG   H2'1   3531     0.0718      3.024000
  3532         HC    258     DG   H2'2   3532     0.0718      3.024000
  3533         OS    258     DG    O3'   3533    -0.5232         16.000000   ; qtot -111.3
; residue 259 DC  rtp DC   q -1.0
  3534          P    259     DC      P   3534     1.1659      30.970000
  3535         O2    259     DC    O1P   3535    -0.7761         16.000000
  3536         O2    259     DC    O2P   3536    -0.7761         16.000000
  3537         OS    259     DC    O5'   3537    -0.4954         16.000000
  3538         CJ    259     DC    C5'   3538    -0.0069      7.978000
  3539         H1    259     DC   H5'1   3539     0.0754      3.024000
  3540         H1    259     DC   H5'2   3540     0.0754      3.024000
  3541         CT    259     DC    C4'   3541     0.1629      9.994000
  3542         H1    259     DC    H4'   3542     0.1176      3.024000
  3543         OS    259     DC    O4'   3543    -0.3691         16.000000
  3544         CT    259     DC    C1'   3544    -0.0116      9.994000
  3545         H2    259     DC    H1'   3545     0.1963      3.024000
  3546         N*    259     DC     N1   3546    -0.0339      14.010000
  3547         C1    259     DC     C6   3547    -0.0183      9.994000
  3548         H4    259     DC     H6   3548     0.2293      3.024000
  3549         C1    259     DC     C5   3549    -0.5222      9.994000
  3550         HA    259     DC     H5   3550     0.1863      3.024000
  3551         CA    259     DC     C4   3551     0.8439      12.010000
  3552         N2    259     DC     N4   3552    -0.9773      9.978000
  3553          H    259     DC    H41   3553     0.4314      3.024000
  3554          H    259     DC    H42   3554     0.4314      3.024000
  3555         NC    259     DC     N3   3555    -0.7748      14.010000
  3556          C    259     DC     C2   3556     0.7959      12.010000
  3557          O    259     DC     O2   3557    -0.6548         16.000000
  3558         C7    259     DC    C3'   3558     0.0713      9.994000
  3559         H1    259     DC    H3'   3559     0.0985      3.024000
  3560         CT    259     DC    C2'   3560    -0.0854      7.978000
  3561         HC    259     DC   H2'1   3561     0.0718      3.024000
  3562         HC    259     DC   H2'2   3562     0.0718      3.024000
  3563         OS    259     DC    O3'   3563    -0.5232         16.000000   ; qtot -112.3
; residue 260 DG  rtp DG   q -1.0
  3564          P    260     DG      P   3564     1.1659      30.970000
  3565         O2    260     DG    O1P   3565    -0.7761         16.000000
  3566         O2    260     DG    O2P   3566    -0.7761         16.000000
  3567         OS    260     DG    O5'   3567    -0.4954         16.000000
  3568         CJ    260     DG    C5'   3568    -0.0069      7.978000
  3569         H1    260     DG   H5'1   3569     0.0754      3.024000
  3570         H1    260     DG   H5'2   3570     0.0754      3.024000
  3571         CT    260     DG    C4'   3571     0.1629      9.994000
  3572         H1    260     DG    H4'   3572     0.1176      3.024000
  3573         OS    260     DG    O4'   3573    -0.3691         16.000000
  3574         CT    260     DG    C1'   3574     0.0358      9.994000
  3575         H2    260     DG    H1'   3575     0.1746      3.024000
  3576         N*    260     DG     N9   3576     0.0577      14.010000
  3577         CK    260     DG     C8   3577     0.0736      9.994000
  3578         H5    260     DG     H8   3578     0.1997      3.024000
  3579         NB    260     DG     N7   3579    -0.5725      14.010000
  3580         CB    260     DG     C5   3580     0.1991      12.010000
  3581          C    260     DG     C6   3581     0.4918      12.010000
  3582          O    260     DG     O6   3582    -0.5699         16.000000
  3583         NA    260     DG     N1   3583    -0.5053      11.994000
  3584          H    260     DG     H1   3584      0.352      3.024000
  3585         CA    260     DG     C2   3585     0.7432      12.010000
  3586         N2    260     DG     N2   3586     -0.923      9.978000
  3587          H    260     DG    H21   3587     0.4235      3.024000
  3588          H    260     DG    H22   3588     0.4235      3.024000
  3589         NC    260     DG     N3   3589    -0.6636      14.010000
  3590         CB    260     DG     C4   3590     0.1814      12.010000
  3591         C7    260     DG    C3'   3591     0.0713      9.994000
  3592         H1    260     DG    H3'   3592     0.0985      3.024000
  3593         CT    260     DG    C2'   3593    -0.0854      7.978000
  3594         HC    260     DG   H2'1   3594     0.0718      3.024000
  3595         HC    260     DG   H2'2   3595     0.0718      3.024000
  3596         OS    260     DG    O3'   3596    -0.5232         16.000000   ; qtot -113.3
; residue 261 DC  rtp DC   q -1.0
  3597          P    261     DC      P   3597     1.1659      30.970000
  3598         O2    261     DC    O1P   3598    -0.7761         16.000000
  3599         O2    261     DC    O2P   3599    -0.7761         16.000000
  3600         OS    261     DC    O5'   3600    -0.4954         16.000000
  3601         CJ    261     DC    C5'   3601    -0.0069      7.978000
  3602         H1    261     DC   H5'1   3602     0.0754      3.024000
  3603         H1    261     DC   H5'2   3603     0.0754      3.024000
  3604         CT    261     DC    C4'   3604     0.1629      9.994000
  3605         H1    261     DC    H4'   3605     0.1176      3.024000
  3606         OS    261     DC    O4'   3606    -0.3691         16.000000
  3607         CT    261     DC    C1'   3607    -0.0116      9.994000
  3608         H2    261     DC    H1'   3608     0.1963      3.024000
  3609         N*    261     DC     N1   3609    -0.0339      14.010000
  3610         C1    261     DC     C6   3610    -0.0183      9.994000
  3611         H4    261     DC     H6   3611     0.2293      3.024000
  3612         C1    261     DC     C5   3612    -0.5222      9.994000
  3613         HA    261     DC     H5   3613     0.1863      3.024000
  3614         CA    261     DC     C4   3614     0.8439      12.010000
  3615         N2    261     DC     N4   3615    -0.9773      9.978000
  3616          H    261     DC    H41   3616     0.4314      3.024000
  3617          H    261     DC    H42   3617     0.4314      3.024000
  3618         NC    261     DC     N3   3618    -0.7748      14.010000
  3619          C    261     DC     C2   3619     0.7959      12.010000
  3620          O    261     DC     O2   3620    -0.6548         16.000000
  3621         C7    261     DC    C3'   3621     0.0713      9.994000
  3622         H1    261     DC    H3'   3622     0.0985      3.024000
  3623         CT    261     DC    C2'   3623    -0.0854      7.978000
  3624         HC    261     DC   H2'1   3624     0.0718      3.024000
  3625         HC    261     DC   H2'2   3625     0.0718      3.024000
  3626         OS    261     DC    O3'   3626    -0.5232         16.000000   ; qtot -114.3
; residue 262 DT  rtp DT   q -1.0
  3627          P    262     DT      P   3627     1.1659      30.970000
  3628         O2    262     DT    O1P   3628    -0.7761         16.000000
  3629         O2    262     DT    O2P   3629    -0.7761         16.000000
  3630         OS    262     DT    O5'   3630    -0.4954         16.000000
  3631         CJ    262     DT    C5'   3631    -0.0069      7.978000
  3632         H1    262     DT   H5'1   3632     0.0754      3.024000
  3633         H1    262     DT   H5'2   3633     0.0754      3.024000
  3634         CT    262     DT    C4'   3634     0.1629      9.994000
  3635         H1    262     DT    H4'   3635     0.1176      3.024000
  3636         OS    262     DT    O4'   3636    -0.3691         16.000000
  3637         CT    262     DT    C1'   3637      0.068      9.994000
  3638         H2    262     DT    H1'   3638     0.1804      3.024000
  3639         N*    262     DT     N1   3639    -0.0239      14.010000
  3640         CM    262     DT     C6   3640    -0.2209      9.994000
  3641         H4    262     DT     H6   3641     0.2607      3.024000
  3642         CM    262     DT     C5   3642     0.0025      12.010000
  3643         CT    262     DT     C7   3643    -0.2269      5.962000
  3644         HC    262     DT    H71   3644      0.077      3.024000
  3645         HC    262     DT    H72   3645      0.077      3.024000
  3646         HC    262     DT    H73   3646      0.077      3.024000
  3647          C    262     DT     C4   3647     0.5194      12.010000
  3648          O    262     DT     O4   3648    -0.5563         16.000000
  3649         NA    262     DT     N3   3649     -0.434      11.994000
  3650          H    262     DT     H3   3650      0.342      3.024000
  3651          C    262     DT     C2   3651     0.5677      12.010000
  3652          O    262     DT     O2   3652    -0.5881         16.000000
  3653         C7    262     DT    C3'   3653     0.0713      9.994000
  3654         H1    262     DT    H3'   3654     0.0985      3.024000
  3655         CT    262     DT    C2'   3655    -0.0854      7.978000
  3656         HC    262     DT   H2'1   3656     0.0718      3.024000
  3657         HC    262     DT   H2'2   3657     0.0718      3.024000
  3658         OS    262     DT    O3'   3658    -0.5232         16.000000   ; qtot -115.3
; residue 263 DC  rtp DC   q -1.0
  3659          P    263     DC      P   3659     1.1659      30.970000
  3660         O2    263     DC    O1P   3660    -0.7761         16.000000
  3661         O2    263     DC    O2P   3661    -0.7761         16.000000
  3662         OS    263     DC    O5'   3662    -0.4954         16.000000
  3663         CJ    263     DC    C5'   3663    -0.0069      7.978000
  3664         H1    263     DC   H5'1   3664     0.0754      3.024000
  3665         H1    263     DC   H5'2   3665     0.0754      3.024000
  3666         CT    263     DC    C4'   3666     0.1629      9.994000
  3667         H1    263     DC    H4'   3667     0.1176      3.024000
  3668         OS    263     DC    O4'   3668    -0.3691         16.000000
  3669         CT    263     DC    C1'   3669    -0.0116      9.994000
  3670         H2    263     DC    H1'   3670     0.1963      3.024000
  3671         N*    263     DC     N1   3671    -0.0339      14.010000
  3672         C1    263     DC     C6   3672    -0.0183      9.994000
  3673         H4    263     DC     H6   3673     0.2293      3.024000
  3674         C1    263     DC     C5   3674    -0.5222      9.994000
  3675         HA    263     DC     H5   3675     0.1863      3.024000
  3676         CA    263     DC     C4   3676     0.8439      12.010000
  3677         N2    263     DC     N4   3677    -0.9773      9.978000
  3678          H    263     DC    H41   3678     0.4314      3.024000
  3679          H    263     DC    H42   3679     0.4314      3.024000
  3680         NC    263     DC     N3   3680    -0.7748      14.010000
  3681          C    263     DC     C2   3681     0.7959      12.010000
  3682          O    263     DC     O2   3682    -0.6548         16.000000
  3683         C7    263     DC    C3'   3683     0.0713      9.994000
  3684         H1    263     DC    H3'   3684     0.0985      3.024000
  3685         CT    263     DC    C2'   3685    -0.0854      7.978000
  3686         HC    263     DC   H2'1   3686     0.0718      3.024000
  3687         HC    263     DC   H2'2   3687     0.0718      3.024000
  3688         OS    263     DC    O3'   3688    -0.5232         16.000000   ; qtot -116.3
; residue 264 DG  rtp DG   q -1.0
  3689          P    264     DG      P   3689     1.1659      30.970000
  3690         O2    264     DG    O1P   3690    -0.7761         16.000000
  3691         O2    264     DG    O2P   3691    -0.7761         16.000000
  3692         OS    264     DG    O5'   3692    -0.4954         16.000000
  3693         CJ    264     DG    C5'   3693    -0.0069      7.978000
  3694         H1    264     DG   H5'1   3694     0.0754      3.024000
  3695         H1    264     DG   H5'2   3695     0.0754      3.024000
  3696         CT    264     DG    C4'   3696     0.1629      9.994000
  3697         H1    264     DG    H4'   3697     0.1176      3.024000
  3698         OS    264     DG    O4'   3698    -0.3691         16.000000
  3699         CT    264     DG    C1'   3699     0.0358      9.994000
  3700         H2    264     DG    H1'   3700     0.1746      3.024000
  3701         N*    264     DG     N9   3701     0.0577      14.010000
  3702         CK    264     DG     C8   3702     0.0736      9.994000
  3703         H5    264     DG     H8   3703     0.1997      3.024000
  3704         NB    264     DG     N7   3704    -0.5725      14.010000
  3705         CB    264     DG     C5   3705     0.1991      12.010000
  3706          C    264     DG     C6   3706     0.4918      12.010000
  3707          O    264     DG     O6   3707    -0.5699         16.000000
  3708         NA    264     DG     N1   3708    -0.5053      11.994000
  3709          H    264     DG     H1   3709      0.352      3.024000
  3710         CA    264     DG     C2   3710     0.7432      12.010000
  3711         N2    264     DG     N2   3711     -0.923      9.978000
  3712          H    264     DG    H21   3712     0.4235      3.024000
  3713          H    264     DG    H22   3713     0.4235      3.024000
  3714         NC    264     DG     N3   3714    -0.6636      14.010000
  3715         CB    264     DG     C4   3715     0.1814      12.010000
  3716         C7    264     DG    C3'   3716     0.0713      9.994000
  3717         H1    264     DG    H3'   3717     0.0985      3.024000
  3718         CT    264     DG    C2'   3718    -0.0854      7.978000
  3719         HC    264     DG   H2'1   3719     0.0718      3.024000
  3720         HC    264     DG   H2'2   3720     0.0718      3.024000
  3721         OS    264     DG    O3'   3721    -0.5232         16.000000   ; qtot -117.3
; residue 265 DC  rtp DC   q -1.0
  3722          P    265     DC      P   3722     1.1659      30.970000
  3723         O2    265     DC    O1P   3723    -0.7761         16.000000
  3724         O2    265     DC    O2P   3724    -0.7761         16.000000
  3725         OS    265     DC    O5'   3725    -0.4954         16.000000
  3726         CJ    265     DC    C5'   3726    -0.0069      7.978000
  3727         H1    265     DC   H5'1   3727     0.0754      3.024000
  3728         H1    265     DC   H5'2   3728     0.0754      3.024000
  3729         CT    265     DC    C4'   3729     0.1629      9.994000
  3730         H1    265     DC    H4'   3730     0.1176      3.024000
  3731         OS    265     DC    O4'   3731    -0.3691         16.000000
  3732         CT    265     DC    C1'   3732    -0.0116      9.994000
  3733         H2    265     DC    H1'   3733     0.1963      3.024000
  3734         N*    265     DC     N1   3734    -0.0339      14.010000
  3735         C1    265     DC     C6   3735    -0.0183      9.994000
  3736         H4    265     DC     H6   3736     0.2293      3.024000
  3737         C1    265     DC     C5   3737    -0.5222      9.994000
  3738         HA    265     DC     H5   3738     0.1863      3.024000
  3739         CA    265     DC     C4   3739     0.8439      12.010000
  3740         N2    265     DC     N4   3740    -0.9773      9.978000
  3741          H    265     DC    H41   3741     0.4314      3.024000
  3742          H    265     DC    H42   3742     0.4314      3.024000
  3743         NC    265     DC     N3   3743    -0.7748      14.010000
  3744          C    265     DC     C2   3744     0.7959      12.010000
  3745          O    265     DC     O2   3745    -0.6548         16.000000
  3746         C7    265     DC    C3'   3746     0.0713      9.994000
  3747         H1    265     DC    H3'   3747     0.0985      3.024000
  3748         CT    265     DC    C2'   3748    -0.0854      7.978000
  3749         HC    265     DC   H2'1   3749     0.0718      3.024000
  3750         HC    265     DC   H2'2   3750     0.0718      3.024000
  3751         OS    265     DC    O3'   3751    -0.5232         16.000000   ; qtot -118.3
; residue 266 DT  rtp DT   q -1.0
  3752          P    266     DT      P   3752     1.1659      30.970000
  3753         O2    266     DT    O1P   3753    -0.7761         16.000000
  3754         O2    266     DT    O2P   3754    -0.7761         16.000000
  3755         OS    266     DT    O5'   3755    -0.4954         16.000000
  3756         CJ    266     DT    C5'   3756    -0.0069      7.978000
  3757         H1    266     DT   H5'1   3757     0.0754      3.024000
  3758         H1    266     DT   H5'2   3758     0.0754      3.024000
  3759         CT    266     DT    C4'   3759     0.1629      9.994000
  3760         H1    266     DT    H4'   3760     0.1176      3.024000
  3761         OS    266     DT    O4'   3761    -0.3691         16.000000
  3762         CT    266     DT    C1'   3762      0.068      9.994000
  3763         H2    266     DT    H1'   3763     0.1804      3.024000
  3764         N*    266     DT     N1   3764    -0.0239      14.010000
  3765         CM    266     DT     C6   3765    -0.2209      9.994000
  3766         H4    266     DT     H6   3766     0.2607      3.024000
  3767         CM    266     DT     C5   3767     0.0025      12.010000
  3768         CT    266     DT     C7   3768    -0.2269      5.962000
  3769         HC    266     DT    H71   3769      0.077      3.024000
  3770         HC    266     DT    H72   3770      0.077      3.024000
  3771         HC    266     DT    H73   3771      0.077      3.024000
  3772          C    266     DT     C4   3772     0.5194      12.010000
  3773          O    266     DT     O4   3773    -0.5563         16.000000
  3774         NA    266     DT     N3   3774     -0.434      11.994000
  3775          H    266     DT     H3   3775      0.342      3.024000
  3776          C    266     DT     C2   3776     0.5677      12.010000
  3777          O    266     DT     O2   3777    -0.5881         16.000000
  3778         C7    266     DT    C3'   3778     0.0713      9.994000
  3779         H1    266     DT    H3'   3779     0.0985      3.024000
  3780         CT    266     DT    C2'   3780    -0.0854      7.978000
  3781         HC    266     DT   H2'1   3781     0.0718      3.024000
  3782         HC    266     DT   H2'2   3782     0.0718      3.024000
  3783         OS    266     DT    O3'   3783    -0.5232         16.000000   ; qtot -119.3
; residue 267 DC  rtp DC   q -1.0
  3784          P    267     DC      P   3784     1.1659      30.970000
  3785         O2    267     DC    O1P   3785    -0.7761         16.000000
  3786         O2    267     DC    O2P   3786    -0.7761         16.000000
  3787         OS    267     DC    O5'   3787    -0.4954         16.000000
  3788         CJ    267     DC    C5'   3788    -0.0069      7.978000
  3789         H1    267     DC   H5'1   3789     0.0754      3.024000
  3790         H1    267     DC   H5'2   3790     0.0754      3.024000
  3791         CT    267     DC    C4'   3791     0.1629      9.994000
  3792         H1    267     DC    H4'   3792     0.1176      3.024000
  3793         OS    267     DC    O4'   3793    -0.3691         16.000000
  3794         CT    267     DC    C1'   3794    -0.0116      9.994000
  3795         H2    267     DC    H1'   3795     0.1963      3.024000
  3796         N*    267     DC     N1   3796    -0.0339      14.010000
  3797         C1    267     DC     C6   3797    -0.0183      9.994000
  3798         H4    267     DC     H6   3798     0.2293      3.024000
  3799         C1    267     DC     C5   3799    -0.5222      9.994000
  3800         HA    267     DC     H5   3800     0.1863      3.024000
  3801         CA    267     DC     C4   3801     0.8439      12.010000
  3802         N2    267     DC     N4   3802    -0.9773      9.978000
  3803          H    267     DC    H41   3803     0.4314      3.024000
  3804          H    267     DC    H42   3804     0.4314      3.024000
  3805         NC    267     DC     N3   3805    -0.7748      14.010000
  3806          C    267     DC     C2   3806     0.7959      12.010000
  3807          O    267     DC     O2   3807    -0.6548         16.000000
  3808         C7    267     DC    C3'   3808     0.0713      9.994000
  3809         H1    267     DC    H3'   3809     0.0985      3.024000
  3810         CT    267     DC    C2'   3810    -0.0854      7.978000
  3811         HC    267     DC   H2'1   3811     0.0718      3.024000
  3812         HC    267     DC   H2'2   3812     0.0718      3.024000
  3813         OS    267     DC    O3'   3813    -0.5232         16.000000   ; qtot -120.3
; residue 268 DC  rtp DC   q -1.0
  3814          P    268     DC      P   3814     1.1659      30.970000
  3815         O2    268     DC    O1P   3815    -0.7761         16.000000
  3816         O2    268     DC    O2P   3816    -0.7761         16.000000
  3817         OS    268     DC    O5'   3817    -0.4954         16.000000
  3818         CJ    268     DC    C5'   3818    -0.0069      7.978000
  3819         H1    268     DC   H5'1   3819     0.0754      3.024000
  3820         H1    268     DC   H5'2   3820     0.0754      3.024000
  3821         CT    268     DC    C4'   3821     0.1629      9.994000
  3822         H1    268     DC    H4'   3822     0.1176      3.024000
  3823         OS    268     DC    O4'   3823    -0.3691         16.000000
  3824         CT    268     DC    C1'   3824    -0.0116      9.994000
  3825         H2    268     DC    H1'   3825     0.1963      3.024000
  3826         N*    268     DC     N1   3826    -0.0339      14.010000
  3827         C1    268     DC     C6   3827    -0.0183      9.994000
  3828         H4    268     DC     H6   3828     0.2293      3.024000
  3829         C1    268     DC     C5   3829    -0.5222      9.994000
  3830         HA    268     DC     H5   3830     0.1863      3.024000
  3831         CA    268     DC     C4   3831     0.8439      12.010000
  3832         N2    268     DC     N4   3832    -0.9773      9.978000
  3833          H    268     DC    H41   3833     0.4314      3.024000
  3834          H    268     DC    H42   3834     0.4314      3.024000
  3835         NC    268     DC     N3   3835    -0.7748      14.010000
  3836          C    268     DC     C2   3836     0.7959      12.010000
  3837          O    268     DC     O2   3837    -0.6548         16.000000
  3838         C7    268     DC    C3'   3838     0.0713      9.994000
  3839         H1    268     DC    H3'   3839     0.0985      3.024000
  3840         CT    268     DC    C2'   3840    -0.0854      7.978000
  3841         HC    268     DC   H2'1   3841     0.0718      3.024000
  3842         HC    268     DC   H2'2   3842     0.0718      3.024000
  3843         OS    268     DC    O3'   3843    -0.5232         16.000000   ; qtot -121.3
; residue 269 DC  rtp DC   q -1.0
  3844          P    269     DC      P   3844     1.1659      30.970000
  3845         O2    269     DC    O1P   3845    -0.7761         16.000000
  3846         O2    269     DC    O2P   3846    -0.7761         16.000000
  3847         OS    269     DC    O5'   3847    -0.4954         16.000000
  3848         CJ    269     DC    C5'   3848    -0.0069      7.978000
  3849         H1    269     DC   H5'1   3849     0.0754      3.024000
  3850         H1    269     DC   H5'2   3850     0.0754      3.024000
  3851         CT    269     DC    C4'   3851     0.1629      9.994000
  3852         H1    269     DC    H4'   3852     0.1176      3.024000
  3853         OS    269     DC    O4'   3853    -0.3691         16.000000
  3854         CT    269     DC    C1'   3854    -0.0116      9.994000
  3855         H2    269     DC    H1'   3855     0.1963      3.024000
  3856         N*    269     DC     N1   3856    -0.0339      14.010000
  3857         C1    269     DC     C6   3857    -0.0183      9.994000
  3858         H4    269     DC     H6   3858     0.2293      3.024000
  3859         C1    269     DC     C5   3859    -0.5222      9.994000
  3860         HA    269     DC     H5   3860     0.1863      3.024000
  3861         CA    269     DC     C4   3861     0.8439      12.010000
  3862         N2    269     DC     N4   3862    -0.9773      9.978000
  3863          H    269     DC    H41   3863     0.4314      3.024000
  3864          H    269     DC    H42   3864     0.4314      3.024000
  3865         NC    269     DC     N3   3865    -0.7748      14.010000
  3866          C    269     DC     C2   3866     0.7959      12.010000
  3867          O    269     DC     O2   3867    -0.6548         16.000000
  3868         C7    269     DC    C3'   3868     0.0713      9.994000
  3869         H1    269     DC    H3'   3869     0.0985      3.024000
  3870         CT    269     DC    C2'   3870    -0.0854      7.978000
  3871         HC    269     DC   H2'1   3871     0.0718      3.024000
  3872         HC    269     DC   H2'2   3872     0.0718      3.024000
  3873         OS    269     DC    O3'   3873    -0.5232         16.000000   ; qtot -122.3
; residue 270 DA  rtp DA   q -1.0
  3874          P    270     DA      P   3874     1.1659      30.970000
  3875         O2    270     DA    O1P   3875    -0.7761         16.000000
  3876         O2    270     DA    O2P   3876    -0.7761         16.000000
  3877         OS    270     DA    O5'   3877    -0.4954         16.000000
  3878         CJ    270     DA    C5'   3878    -0.0069      7.978000
  3879         H1    270     DA   H5'1   3879     0.0754      3.024000
  3880         H1    270     DA   H5'2   3880     0.0754      3.024000
  3881         CT    270     DA    C4'   3881     0.1629      9.994000
  3882         H1    270     DA    H4'   3882     0.1176      3.024000
  3883         OS    270     DA    O4'   3883    -0.3691         16.000000
  3884         CT    270     DA    C1'   3884     0.0431      9.994000
  3885         H2    270     DA    H1'   3885     0.1838      3.024000
  3886         N*    270     DA     N9   3886    -0.0268      14.010000
  3887         C2    270     DA     C8   3887     0.1607      9.994000
  3888         H5    270     DA     H8   3888     0.1877      3.024000
  3889         NB    270     DA     N7   3889    -0.6175      14.010000
  3890         CB    270     DA     C5   3890     0.0725      12.010000
  3891         CA    270     DA     C6   3891     0.6897      12.010000
  3892         N2    270     DA     N6   3892    -0.9123      9.978000
  3893          H    270     DA    H61   3893     0.4167      3.024000
  3894          H    270     DA    H62   3894     0.4167      3.024000
  3895         NC    270     DA     N1   3895    -0.7624      14.010000
  3896         CQ    270     DA     C2   3896     0.5716      9.994000
  3897         H5    270     DA     H2   3897     0.0598      3.024000
  3898         NC    270     DA     N3   3898    -0.7417      14.010000
  3899         CB    270     DA     C4   3899       0.38      12.010000
  3900         C7    270     DA    C3'   3900     0.0713      9.994000
  3901         H1    270     DA    H3'   3901     0.0985      3.024000
  3902         CT    270     DA    C2'   3902    -0.0854      7.978000
  3903         HC    270     DA   H2'1   3903     0.0718      3.024000
  3904         HC    270     DA   H2'2   3904     0.0718      3.024000
  3905         OS    270     DA    O3'   3905    -0.5232         16.000000   ; qtot -123.3
; residue 271 DG  rtp DG   q -1.0
  3906          P    271     DG      P   3906     1.1659      30.970000
  3907         O2    271     DG    O1P   3907    -0.7761         16.000000
  3908         O2    271     DG    O2P   3908    -0.7761         16.000000
  3909         OS    271     DG    O5'   3909    -0.4954         16.000000
  3910         CJ    271     DG    C5'   3910    -0.0069      7.978000
  3911         H1    271     DG   H5'1   3911     0.0754      3.024000
  3912         H1    271     DG   H5'2   3912     0.0754      3.024000
  3913         CT    271     DG    C4'   3913     0.1629      9.994000
  3914         H1    271     DG    H4'   3914     0.1176      3.024000
  3915         OS    271     DG    O4'   3915    -0.3691         16.000000
  3916         CT    271     DG    C1'   3916     0.0358      9.994000
  3917         H2    271     DG    H1'   3917     0.1746      3.024000
  3918         N*    271     DG     N9   3918     0.0577      14.010000
  3919         CK    271     DG     C8   3919     0.0736      9.994000
  3920         H5    271     DG     H8   3920     0.1997      3.024000
  3921         NB    271     DG     N7   3921    -0.5725      14.010000
  3922         CB    271     DG     C5   3922     0.1991      12.010000
  3923          C    271     DG     C6   3923     0.4918      12.010000
  3924          O    271     DG     O6   3924    -0.5699         16.000000
  3925         NA    271     DG     N1   3925    -0.5053      11.994000
  3926          H    271     DG     H1   3926      0.352      3.024000
  3927         CA    271     DG     C2   3927     0.7432      12.010000
  3928         N2    271     DG     N2   3928     -0.923      9.978000
  3929          H    271     DG    H21   3929     0.4235      3.024000
  3930          H    271     DG    H22   3930     0.4235      3.024000
  3931         NC    271     DG     N3   3931    -0.6636      14.010000
  3932         CB    271     DG     C4   3932     0.1814      12.010000
  3933         C7    271     DG    C3'   3933     0.0713      9.994000
  3934         H1    271     DG    H3'   3934     0.0985      3.024000
  3935         CT    271     DG    C2'   3935    -0.0854      7.978000
  3936         HC    271     DG   H2'1   3936     0.0718      3.024000
  3937         HC    271     DG   H2'2   3937     0.0718      3.024000
  3938         OS    271     DG    O3'   3938    -0.5232         16.000000   ; qtot -124.3
; residue 272 DT  rtp DT   q -1.0
  3939          P    272     DT      P   3939     1.1659      30.970000
  3940         O2    272     DT    O1P   3940    -0.7761         16.000000
  3941         O2    272     DT    O2P   3941    -0.7761         16.000000
  3942         OS    272     DT    O5'   3942    -0.4954         16.000000
  3943         CJ    272     DT    C5'   3943    -0.0069      7.978000
  3944         H1    272     DT   H5'1   3944     0.0754      3.024000
  3945         H1    272     DT   H5'2   3945     0.0754      3.024000
  3946         CT    272     DT    C4'   3946     0.1629      9.994000
  3947         H1    272     DT    H4'   3947     0.1176      3.024000
  3948         OS    272     DT    O4'   3948    -0.3691         16.000000
  3949         CT    272     DT    C1'   3949      0.068      9.994000
  3950         H2    272     DT    H1'   3950     0.1804      3.024000
  3951         N*    272     DT     N1   3951    -0.0239      14.010000
  3952         CM    272     DT     C6   3952    -0.2209      9.994000
  3953         H4    272     DT     H6   3953     0.2607      3.024000
  3954         CM    272     DT     C5   3954     0.0025      12.010000
  3955         CT    272     DT     C7   3955    -0.2269      5.962000
  3956         HC    272     DT    H71   3956      0.077      3.024000
  3957         HC    272     DT    H72   3957      0.077      3.024000
  3958         HC    272     DT    H73   3958      0.077      3.024000
  3959          C    272     DT     C4   3959     0.5194      12.010000
  3960          O    272     DT     O4   3960    -0.5563         16.000000
  3961         NA    272     DT     N3   3961     -0.434      11.994000
  3962          H    272     DT     H3   3962      0.342      3.024000
  3963          C    272     DT     C2   3963     0.5677      12.010000
  3964          O    272     DT     O2   3964    -0.5881         16.000000
  3965         C7    272     DT    C3'   3965     0.0713      9.994000
  3966         H1    272     DT    H3'   3966     0.0985      3.024000
  3967         CT    272     DT    C2'   3967    -0.0854      7.978000
  3968         HC    272     DT   H2'1   3968     0.0718      3.024000
  3969         HC    272     DT   H2'2   3969     0.0718      3.024000
  3970         OS    272     DT    O3'   3970    -0.5232         16.000000   ; qtot -125.3
; residue 273 DC  rtp DC   q -1.0
  3971          P    273     DC      P   3971     1.1659      30.970000
  3972         O2    273     DC    O1P   3972    -0.7761         16.000000
  3973         O2    273     DC    O2P   3973    -0.7761         16.000000
  3974         OS    273     DC    O5'   3974    -0.4954         16.000000
  3975         CJ    273     DC    C5'   3975    -0.0069      7.978000
  3976         H1    273     DC   H5'1   3976     0.0754      3.024000
  3977         H1    273     DC   H5'2   3977     0.0754      3.024000
  3978         CT    273     DC    C4'   3978     0.1629      9.994000
  3979         H1    273     DC    H4'   3979     0.1176      3.024000
  3980         OS    273     DC    O4'   3980    -0.3691         16.000000
  3981         CT    273     DC    C1'   3981    -0.0116      9.994000
  3982         H2    273     DC    H1'   3982     0.1963      3.024000
  3983         N*    273     DC     N1   3983    -0.0339      14.010000
  3984         C1    273     DC     C6   3984    -0.0183      9.994000
  3985         H4    273     DC     H6   3985     0.2293      3.024000
  3986         C1    273     DC     C5   3986    -0.5222      9.994000
  3987         HA    273     DC     H5   3987     0.1863      3.024000
  3988         CA    273     DC     C4   3988     0.8439      12.010000
  3989         N2    273     DC     N4   3989    -0.9773      9.978000
  3990          H    273     DC    H41   3990     0.4314      3.024000
  3991          H    273     DC    H42   3991     0.4314      3.024000
  3992         NC    273     DC     N3   3992    -0.7748      14.010000
  3993          C    273     DC     C2   3993     0.7959      12.010000
  3994          O    273     DC     O2   3994    -0.6548         16.000000
  3995         C7    273     DC    C3'   3995     0.0713      9.994000
  3996         H1    273     DC    H3'   3996     0.0985      3.024000
  3997         CT    273     DC    C2'   3997    -0.0854      7.978000
  3998         HC    273     DC   H2'1   3998     0.0718      3.024000
  3999         HC    273     DC   H2'2   3999     0.0718      3.024000
  4000         OS    273     DC    O3'   4000    -0.5232         16.000000   ; qtot -126.3
; residue 274 DC  rtp DC   q -1.0
  4001          P    274     DC      P   4001     1.1659      30.970000
  4002         O2    274     DC    O1P   4002    -0.7761         16.000000
  4003         O2    274     DC    O2P   4003    -0.7761         16.000000
  4004         OS    274     DC    O5'   4004    -0.4954         16.000000
  4005         CJ    274     DC    C5'   4005    -0.0069      7.978000
  4006         H1    274     DC   H5'1   4006     0.0754      3.024000
  4007         H1    274     DC   H5'2   4007     0.0754      3.024000
  4008         CT    274     DC    C4'   4008     0.1629      9.994000
  4009         H1    274     DC    H4'   4009     0.1176      3.024000
  4010         OS    274     DC    O4'   4010    -0.3691         16.000000
  4011         CT    274     DC    C1'   4011    -0.0116      9.994000
  4012         H2    274     DC    H1'   4012     0.1963      3.024000
  4013         N*    274     DC     N1   4013    -0.0339      14.010000
  4014         C1    274     DC     C6   4014    -0.0183      9.994000
  4015         H4    274     DC     H6   4015     0.2293      3.024000
  4016         C1    274     DC     C5   4016    -0.5222      9.994000
  4017         HA    274     DC     H5   4017     0.1863      3.024000
  4018         CA    274     DC     C4   4018     0.8439      12.010000
  4019         N2    274     DC     N4   4019    -0.9773      9.978000
  4020          H    274     DC    H41   4020     0.4314      3.024000
  4021          H    274     DC    H42   4021     0.4314      3.024000
  4022         NC    274     DC     N3   4022    -0.7748      14.010000
  4023          C    274     DC     C2   4023     0.7959      12.010000
  4024          O    274     DC     O2   4024    -0.6548         16.000000
  4025         C7    274     DC    C3'   4025     0.0713      9.994000
  4026         H1    274     DC    H3'   4026     0.0985      3.024000
  4027         CT    274     DC    C2'   4027    -0.0854      7.978000
  4028         HC    274     DC   H2'1   4028     0.0718      3.024000
  4029         HC    274     DC   H2'2   4029     0.0718      3.024000
  4030         OS    274     DC    O3'   4030    -0.5232         16.000000   ; qtot -127.3
; residue 275 DG  rtp DG   q -1.0
  4031          P    275     DG      P   4031     1.1659      30.970000
  4032         O2    275     DG    O1P   4032    -0.7761         16.000000
  4033         O2    275     DG    O2P   4033    -0.7761         16.000000
  4034         OS    275     DG    O5'   4034    -0.4954         16.000000
  4035         CJ    275     DG    C5'   4035    -0.0069      7.978000
  4036         H1    275     DG   H5'1   4036     0.0754      3.024000
  4037         H1    275     DG   H5'2   4037     0.0754      3.024000
  4038         CT    275     DG    C4'   4038     0.1629      9.994000
  4039         H1    275     DG    H4'   4039     0.1176      3.024000
  4040         OS    275     DG    O4'   4040    -0.3691         16.000000
  4041         CT    275     DG    C1'   4041     0.0358      9.994000
  4042         H2    275     DG    H1'   4042     0.1746      3.024000
  4043         N*    275     DG     N9   4043     0.0577      14.010000
  4044         CK    275     DG     C8   4044     0.0736      9.994000
  4045         H5    275     DG     H8   4045     0.1997      3.024000
  4046         NB    275     DG     N7   4046    -0.5725      14.010000
  4047         CB    275     DG     C5   4047     0.1991      12.010000
  4048          C    275     DG     C6   4048     0.4918      12.010000
  4049          O    275     DG     O6   4049    -0.5699         16.000000
  4050         NA    275     DG     N1   4050    -0.5053      11.994000
  4051          H    275     DG     H1   4051      0.352      3.024000
  4052         CA    275     DG     C2   4052     0.7432      12.010000
  4053         N2    275     DG     N2   4053     -0.923      9.978000
  4054          H    275     DG    H21   4054     0.4235      3.024000
  4055          H    275     DG    H22   4055     0.4235      3.024000
  4056         NC    275     DG     N3   4056    -0.6636      14.010000
  4057         CB    275     DG     C4   4057     0.1814      12.010000
  4058         C7    275     DG    C3'   4058     0.0713      9.994000
  4059         H1    275     DG    H3'   4059     0.0985      3.024000
  4060         CT    275     DG    C2'   4060    -0.0854      7.978000
  4061         HC    275     DG   H2'1   4061     0.0718      3.024000
  4062         HC    275     DG   H2'2   4062     0.0718      3.024000
  4063         OS    275     DG    O3'   4063    -0.5232         16.000000   ; qtot -128.3
; residue 276 DA  rtp DA   q -1.0
  4064          P    276     DA      P   4064     1.1659      30.970000
  4065         O2    276     DA    O1P   4065    -0.7761         16.000000
  4066         O2    276     DA    O2P   4066    -0.7761         16.000000
  4067         OS    276     DA    O5'   4067    -0.4954         16.000000
  4068         CJ    276     DA    C5'   4068    -0.0069      7.978000
  4069         H1    276     DA   H5'1   4069     0.0754      3.024000
  4070         H1    276     DA   H5'2   4070     0.0754      3.024000
  4071         CT    276     DA    C4'   4071     0.1629      9.994000
  4072         H1    276     DA    H4'   4072     0.1176      3.024000
  4073         OS    276     DA    O4'   4073    -0.3691         16.000000
  4074         CT    276     DA    C1'   4074     0.0431      9.994000
  4075         H2    276     DA    H1'   4075     0.1838      3.024000
  4076         N*    276     DA     N9   4076    -0.0268      14.010000
  4077         C2    276     DA     C8   4077     0.1607      9.994000
  4078         H5    276     DA     H8   4078     0.1877      3.024000
  4079         NB    276     DA     N7   4079    -0.6175      14.010000
  4080         CB    276     DA     C5   4080     0.0725      12.010000
  4081         CA    276     DA     C6   4081     0.6897      12.010000
  4082         N2    276     DA     N6   4082    -0.9123      9.978000
  4083          H    276     DA    H61   4083     0.4167      3.024000
  4084          H    276     DA    H62   4084     0.4167      3.024000
  4085         NC    276     DA     N1   4085    -0.7624      14.010000
  4086         CQ    276     DA     C2   4086     0.5716      9.994000
  4087         H5    276     DA     H2   4087     0.0598      3.024000
  4088         NC    276     DA     N3   4088    -0.7417      14.010000
  4089         CB    276     DA     C4   4089       0.38      12.010000
  4090         C7    276     DA    C3'   4090     0.0713      9.994000
  4091         H1    276     DA    H3'   4091     0.0985      3.024000
  4092         CT    276     DA    C2'   4092    -0.0854      7.978000
  4093         HC    276     DA   H2'1   4093     0.0718      3.024000
  4094         HC    276     DA   H2'2   4094     0.0718      3.024000
  4095         OS    276     DA    O3'   4095    -0.5232         16.000000   ; qtot -129.3
; residue 277 DA  rtp DA   q -1.0
  4096          P    277     DA      P   4096     1.1659      30.970000
  4097         O2    277     DA    O1P   4097    -0.7761         16.000000
  4098         O2    277     DA    O2P   4098    -0.7761         16.000000
  4099         OS    277     DA    O5'   4099    -0.4954         16.000000
  4100         CJ    277     DA    C5'   4100    -0.0069      7.978000
  4101         H1    277     DA   H5'1   4101     0.0754      3.024000
  4102         H1    277     DA   H5'2   4102     0.0754      3.024000
  4103         CT    277     DA    C4'   4103     0.1629      9.994000
  4104         H1    277     DA    H4'   4104     0.1176      3.024000
  4105         OS    277     DA    O4'   4105    -0.3691         16.000000
  4106         CT    277     DA    C1'   4106     0.0431      9.994000
  4107         H2    277     DA    H1'   4107     0.1838      3.024000
  4108         N*    277     DA     N9   4108    -0.0268      14.010000
  4109         C2    277     DA     C8   4109     0.1607      9.994000
  4110         H5    277     DA     H8   4110     0.1877      3.024000
  4111         NB    277     DA     N7   4111    -0.6175      14.010000
  4112         CB    277     DA     C5   4112     0.0725      12.010000
  4113         CA    277     DA     C6   4113     0.6897      12.010000
  4114         N2    277     DA     N6   4114    -0.9123      9.978000
  4115          H    277     DA    H61   4115     0.4167      3.024000
  4116          H    277     DA    H62   4116     0.4167      3.024000
  4117         NC    277     DA     N1   4117    -0.7624      14.010000
  4118         CQ    277     DA     C2   4118     0.5716      9.994000
  4119         H5    277     DA     H2   4119     0.0598      3.024000
  4120         NC    277     DA     N3   4120    -0.7417      14.010000
  4121         CB    277     DA     C4   4121       0.38      12.010000
  4122         C7    277     DA    C3'   4122     0.0713      9.994000
  4123         H1    277     DA    H3'   4123     0.0985      3.024000
  4124         CT    277     DA    C2'   4124    -0.0854      7.978000
  4125         HC    277     DA   H2'1   4125     0.0718      3.024000
  4126         HC    277     DA   H2'2   4126     0.0718      3.024000
  4127         OS    277     DA    O3'   4127    -0.5232         16.000000   ; qtot -130.3
; residue 278 DA  rtp DA   q -1.0
  4128          P    278     DA      P   4128     1.1659      30.970000
  4129         O2    278     DA    O1P   4129    -0.7761         16.000000
  4130         O2    278     DA    O2P   4130    -0.7761         16.000000
  4131         OS    278     DA    O5'   4131    -0.4954         16.000000
  4132         CJ    278     DA    C5'   4132    -0.0069      7.978000
  4133         H1    278     DA   H5'1   4133     0.0754      3.024000
  4134         H1    278     DA   H5'2   4134     0.0754      3.024000
  4135         CT    278     DA    C4'   4135     0.1629      9.994000
  4136         H1    278     DA    H4'   4136     0.1176      3.024000
  4137         OS    278     DA    O4'   4137    -0.3691         16.000000
  4138         CT    278     DA    C1'   4138     0.0431      9.994000
  4139         H2    278     DA    H1'   4139     0.1838      3.024000
  4140         N*    278     DA     N9   4140    -0.0268      14.010000
  4141         C2    278     DA     C8   4141     0.1607      9.994000
  4142         H5    278     DA     H8   4142     0.1877      3.024000
  4143         NB    278     DA     N7   4143    -0.6175      14.010000
  4144         CB    278     DA     C5   4144     0.0725      12.010000
  4145         CA    278     DA     C6   4145     0.6897      12.010000
  4146         N2    278     DA     N6   4146    -0.9123      9.978000
  4147          H    278     DA    H61   4147     0.4167      3.024000
  4148          H    278     DA    H62   4148     0.4167      3.024000
  4149         NC    278     DA     N1   4149    -0.7624      14.010000
  4150         CQ    278     DA     C2   4150     0.5716      9.994000
  4151         H5    278     DA     H2   4151     0.0598      3.024000
  4152         NC    278     DA     N3   4152    -0.7417      14.010000
  4153         CB    278     DA     C4   4153       0.38      12.010000
  4154         C7    278     DA    C3'   4154     0.0713      9.994000
  4155         H1    278     DA    H3'   4155     0.0985      3.024000
  4156         CT    278     DA    C2'   4156    -0.0854      7.978000
  4157         HC    278     DA   H2'1   4157     0.0718      3.024000
  4158         HC    278     DA   H2'2   4158     0.0718      3.024000
  4159         OS    278     DA    O3'   4159    -0.5232         16.000000   ; qtot -131.3
; residue 279 DT  rtp DT   q -1.0
  4160          P    279     DT      P   4160     1.1659      30.970000
  4161         O2    279     DT    O1P   4161    -0.7761         16.000000
  4162         O2    279     DT    O2P   4162    -0.7761         16.000000
  4163         OS    279     DT    O5'   4163    -0.4954         16.000000
  4164         CJ    279     DT    C5'   4164    -0.0069      7.978000
  4165         H1    279     DT   H5'1   4165     0.0754      3.024000
  4166         H1    279     DT   H5'2   4166     0.0754      3.024000
  4167         CT    279     DT    C4'   4167     0.1629      9.994000
  4168         H1    279     DT    H4'   4168     0.1176      3.024000
  4169         OS    279     DT    O4'   4169    -0.3691         16.000000
  4170         CT    279     DT    C1'   4170      0.068      9.994000
  4171         H2    279     DT    H1'   4171     0.1804      3.024000
  4172         N*    279     DT     N1   4172    -0.0239      14.010000
  4173         CM    279     DT     C6   4173    -0.2209      9.994000
  4174         H4    279     DT     H6   4174     0.2607      3.024000
  4175         CM    279     DT     C5   4175     0.0025      12.010000
  4176         CT    279     DT     C7   4176    -0.2269      5.962000
  4177         HC    279     DT    H71   4177      0.077      3.024000
  4178         HC    279     DT    H72   4178      0.077      3.024000
  4179         HC    279     DT    H73   4179      0.077      3.024000
  4180          C    279     DT     C4   4180     0.5194      12.010000
  4181          O    279     DT     O4   4181    -0.5563         16.000000
  4182         NA    279     DT     N3   4182     -0.434      11.994000
  4183          H    279     DT     H3   4183      0.342      3.024000
  4184          C    279     DT     C2   4184     0.5677      12.010000
  4185          O    279     DT     O2   4185    -0.5881         16.000000
  4186         C7    279     DT    C3'   4186     0.0713      9.994000
  4187         H1    279     DT    H3'   4187     0.0985      3.024000
  4188         CT    279     DT    C2'   4188    -0.0854      7.978000
  4189         HC    279     DT   H2'1   4189     0.0718      3.024000
  4190         HC    279     DT   H2'2   4190     0.0718      3.024000
  4191         OS    279     DT    O3'   4191    -0.5232         16.000000   ; qtot -132.3
; residue 280 DG  rtp DG   q -1.0
  4192          P    280     DG      P   4192     1.1659      30.970000
  4193         O2    280     DG    O1P   4193    -0.7761         16.000000
  4194         O2    280     DG    O2P   4194    -0.7761         16.000000
  4195         OS    280     DG    O5'   4195    -0.4954         16.000000
  4196         CJ    280     DG    C5'   4196    -0.0069      7.978000
  4197         H1    280     DG   H5'1   4197     0.0754      3.024000
  4198         H1    280     DG   H5'2   4198     0.0754      3.024000
  4199         CT    280     DG    C4'   4199     0.1629      9.994000
  4200         H1    280     DG    H4'   4200     0.1176      3.024000
  4201         OS    280     DG    O4'   4201    -0.3691         16.000000
  4202         CT    280     DG    C1'   4202     0.0358      9.994000
  4203         H2    280     DG    H1'   4203     0.1746      3.024000
  4204         N*    280     DG     N9   4204     0.0577      14.010000
  4205         CK    280     DG     C8   4205     0.0736      9.994000
  4206         H5    280     DG     H8   4206     0.1997      3.024000
  4207         NB    280     DG     N7   4207    -0.5725      14.010000
  4208         CB    280     DG     C5   4208     0.1991      12.010000
  4209          C    280     DG     C6   4209     0.4918      12.010000
  4210          O    280     DG     O6   4210    -0.5699         16.000000
  4211         NA    280     DG     N1   4211    -0.5053      11.994000
  4212          H    280     DG     H1   4212      0.352      3.024000
  4213         CA    280     DG     C2   4213     0.7432      12.010000
  4214         N2    280     DG     N2   4214     -0.923      9.978000
  4215          H    280     DG    H21   4215     0.4235      3.024000
  4216          H    280     DG    H22   4216     0.4235      3.024000
  4217         NC    280     DG     N3   4217    -0.6636      14.010000
  4218         CB    280     DG     C4   4218     0.1814      12.010000
  4219         C7    280     DG    C3'   4219     0.0713      9.994000
  4220         H1    280     DG    H3'   4220     0.0985      3.024000
  4221         CT    280     DG    C2'   4221    -0.0854      7.978000
  4222         HC    280     DG   H2'1   4222     0.0718      3.024000
  4223         HC    280     DG   H2'2   4223     0.0718      3.024000
  4224         OS    280     DG    O3'   4224    -0.5232         16.000000   ; qtot -133.3
; residue 281 DG  rtp DG   q -1.0
  4225          P    281     DG      P   4225     1.1659      30.970000
  4226         O2    281     DG    O1P   4226    -0.7761         16.000000
  4227         O2    281     DG    O2P   4227    -0.7761         16.000000
  4228         OS    281     DG    O5'   4228    -0.4954         16.000000
  4229         CJ    281     DG    C5'   4229    -0.0069      7.978000
  4230         H1    281     DG   H5'1   4230     0.0754      3.024000
  4231         H1    281     DG   H5'2   4231     0.0754      3.024000
  4232         CT    281     DG    C4'   4232     0.1629      9.994000
  4233         H1    281     DG    H4'   4233     0.1176      3.024000
  4234         OS    281     DG    O4'   4234    -0.3691         16.000000
  4235         CT    281     DG    C1'   4235     0.0358      9.994000
  4236         H2    281     DG    H1'   4236     0.1746      3.024000
  4237         N*    281     DG     N9   4237     0.0577      14.010000
  4238         CK    281     DG     C8   4238     0.0736      9.994000
  4239         H5    281     DG     H8   4239     0.1997      3.024000
  4240         NB    281     DG     N7   4240    -0.5725      14.010000
  4241         CB    281     DG     C5   4241     0.1991      12.010000
  4242          C    281     DG     C6   4242     0.4918      12.010000
  4243          O    281     DG     O6   4243    -0.5699         16.000000
  4244         NA    281     DG     N1   4244    -0.5053      11.994000
  4245          H    281     DG     H1   4245      0.352      3.024000
  4246         CA    281     DG     C2   4246     0.7432      12.010000
  4247         N2    281     DG     N2   4247     -0.923      9.978000
  4248          H    281     DG    H21   4248     0.4235      3.024000
  4249          H    281     DG    H22   4249     0.4235      3.024000
  4250         NC    281     DG     N3   4250    -0.6636      14.010000
  4251         CB    281     DG     C4   4251     0.1814      12.010000
  4252         C7    281     DG    C3'   4252     0.0713      9.994000
  4253         H1    281     DG    H3'   4253     0.0985      3.024000
  4254         CT    281     DG    C2'   4254    -0.0854      7.978000
  4255         HC    281     DG   H2'1   4255     0.0718      3.024000
  4256         HC    281     DG   H2'2   4256     0.0718      3.024000
  4257         OS    281     DG    O3'   4257    -0.5232         16.000000   ; qtot -134.3
; residue 282 DC  rtp DC   q -1.0
  4258          P    282     DC      P   4258     1.1659      30.970000
  4259         O2    282     DC    O1P   4259    -0.7761         16.000000
  4260         O2    282     DC    O2P   4260    -0.7761         16.000000
  4261         OS    282     DC    O5'   4261    -0.4954         16.000000
  4262         CJ    282     DC    C5'   4262    -0.0069      7.978000
  4263         H1    282     DC   H5'1   4263     0.0754      3.024000
  4264         H1    282     DC   H5'2   4264     0.0754      3.024000
  4265         CT    282     DC    C4'   4265     0.1629      9.994000
  4266         H1    282     DC    H4'   4266     0.1176      3.024000
  4267         OS    282     DC    O4'   4267    -0.3691         16.000000
  4268         CT    282     DC    C1'   4268    -0.0116      9.994000
  4269         H2    282     DC    H1'   4269     0.1963      3.024000
  4270         N*    282     DC     N1   4270    -0.0339      14.010000
  4271         C1    282     DC     C6   4271    -0.0183      9.994000
  4272         H4    282     DC     H6   4272     0.2293      3.024000
  4273         C1    282     DC     C5   4273    -0.5222      9.994000
  4274         HA    282     DC     H5   4274     0.1863      3.024000
  4275         CA    282     DC     C4   4275     0.8439      12.010000
  4276         N2    282     DC     N4   4276    -0.9773      9.978000
  4277          H    282     DC    H41   4277     0.4314      3.024000
  4278          H    282     DC    H42   4278     0.4314      3.024000
  4279         NC    282     DC     N3   4279    -0.7748      14.010000
  4280          C    282     DC     C2   4280     0.7959      12.010000
  4281          O    282     DC     O2   4281    -0.6548         16.000000
  4282         C7    282     DC    C3'   4282     0.0713      9.994000
  4283         H1    282     DC    H3'   4283     0.0985      3.024000
  4284         CT    282     DC    C2'   4284    -0.0854      7.978000
  4285         HC    282     DC   H2'1   4285     0.0718      3.024000
  4286         HC    282     DC   H2'2   4286     0.0718      3.024000
  4287         OS    282     DC    O3'   4287    -0.5232         16.000000   ; qtot -135.3
; residue 283 DG  rtp DG   q -1.0
  4288          P    283     DG      P   4288     1.1659      30.970000
  4289         O2    283     DG    O1P   4289    -0.7761         16.000000
  4290         O2    283     DG    O2P   4290    -0.7761         16.000000
  4291         OS    283     DG    O5'   4291    -0.4954         16.000000
  4292         CJ    283     DG    C5'   4292    -0.0069      7.978000
  4293         H1    283     DG   H5'1   4293     0.0754      3.024000
  4294         H1    283     DG   H5'2   4294     0.0754      3.024000
  4295         CT    283     DG    C4'   4295     0.1629      9.994000
  4296         H1    283     DG    H4'   4296     0.1176      3.024000
  4297         OS    283     DG    O4'   4297    -0.3691         16.000000
  4298         CT    283     DG    C1'   4298     0.0358      9.994000
  4299         H2    283     DG    H1'   4299     0.1746      3.024000
  4300         N*    283     DG     N9   4300     0.0577      14.010000
  4301         CK    283     DG     C8   4301     0.0736      9.994000
  4302         H5    283     DG     H8   4302     0.1997      3.024000
  4303         NB    283     DG     N7   4303    -0.5725      14.010000
  4304         CB    283     DG     C5   4304     0.1991      12.010000
  4305          C    283     DG     C6   4305     0.4918      12.010000
  4306          O    283     DG     O6   4306    -0.5699         16.000000
  4307         NA    283     DG     N1   4307    -0.5053      11.994000
  4308          H    283     DG     H1   4308      0.352      3.024000
  4309         CA    283     DG     C2   4309     0.7432      12.010000
  4310         N2    283     DG     N2   4310     -0.923      9.978000
  4311          H    283     DG    H21   4311     0.4235      3.024000
  4312          H    283     DG    H22   4312     0.4235      3.024000
  4313         NC    283     DG     N3   4313    -0.6636      14.010000
  4314         CB    283     DG     C4   4314     0.1814      12.010000
  4315         C7    283     DG    C3'   4315     0.0713      9.994000
  4316         H1    283     DG    H3'   4316     0.0985      3.024000
  4317         CT    283     DG    C2'   4317    -0.0854      7.978000
  4318         HC    283     DG   H2'1   4318     0.0718      3.024000
  4319         HC    283     DG   H2'2   4319     0.0718      3.024000
  4320         OS    283     DG    O3'   4320    -0.5232         16.000000   ; qtot -136.3
; residue 284 DG  rtp DG   q -1.0
  4321          P    284     DG      P   4321     1.1659      30.970000
  4322         O2    284     DG    O1P   4322    -0.7761         16.000000
  4323         O2    284     DG    O2P   4323    -0.7761         16.000000
  4324         OS    284     DG    O5'   4324    -0.4954         16.000000
  4325         CJ    284     DG    C5'   4325    -0.0069      7.978000
  4326         H1    284     DG   H5'1   4326     0.0754      3.024000
  4327         H1    284     DG   H5'2   4327     0.0754      3.024000
  4328         CT    284     DG    C4'   4328     0.1629      9.994000
  4329         H1    284     DG    H4'   4329     0.1176      3.024000
  4330         OS    284     DG    O4'   4330    -0.3691         16.000000
  4331         CT    284     DG    C1'   4331     0.0358      9.994000
  4332         H2    284     DG    H1'   4332     0.1746      3.024000
  4333         N*    284     DG     N9   4333     0.0577      14.010000
  4334         CK    284     DG     C8   4334     0.0736      9.994000
  4335         H5    284     DG     H8   4335     0.1997      3.024000
  4336         NB    284     DG     N7   4336    -0.5725      14.010000
  4337         CB    284     DG     C5   4337     0.1991      12.010000
  4338          C    284     DG     C6   4338     0.4918      12.010000
  4339          O    284     DG     O6   4339    -0.5699         16.000000
  4340         NA    284     DG     N1   4340    -0.5053      11.994000
  4341          H    284     DG     H1   4341      0.352      3.024000
  4342         CA    284     DG     C2   4342     0.7432      12.010000
  4343         N2    284     DG     N2   4343     -0.923      9.978000
  4344          H    284     DG    H21   4344     0.4235      3.024000
  4345          H    284     DG    H22   4345     0.4235      3.024000
  4346         NC    284     DG     N3   4346    -0.6636      14.010000
  4347         CB    284     DG     C4   4347     0.1814      12.010000
  4348         C7    284     DG    C3'   4348     0.0713      9.994000
  4349         H1    284     DG    H3'   4349     0.0985      3.024000
  4350         CT    284     DG    C2'   4350    -0.0854      7.978000
  4351         HC    284     DG   H2'1   4351     0.0718      3.024000
  4352         HC    284     DG   H2'2   4352     0.0718      3.024000
  4353         OS    284     DG    O3'   4353    -0.5232         16.000000   ; qtot -137.3
; residue 285 DG  rtp DG   q -1.0
  4354          P    285     DG      P   4354     1.1659      30.970000
  4355         O2    285     DG    O1P   4355    -0.7761         16.000000
  4356         O2    285     DG    O2P   4356    -0.7761         16.000000
  4357         OS    285     DG    O5'   4357    -0.4954         16.000000
  4358         CJ    285     DG    C5'   4358    -0.0069      7.978000
  4359         H1    285     DG   H5'1   4359     0.0754      3.024000
  4360         H1    285     DG   H5'2   4360     0.0754      3.024000
  4361         CT    285     DG    C4'   4361     0.1629      9.994000
  4362         H1    285     DG    H4'   4362     0.1176      3.024000
  4363         OS    285     DG    O4'   4363    -0.3691         16.000000
  4364         CT    285     DG    C1'   4364     0.0358      9.994000
  4365         H2    285     DG    H1'   4365     0.1746      3.024000
  4366         N*    285     DG     N9   4366     0.0577      14.010000
  4367         CK    285     DG     C8   4367     0.0736      9.994000
  4368         H5    285     DG     H8   4368     0.1997      3.024000
  4369         NB    285     DG     N7   4369    -0.5725      14.010000
  4370         CB    285     DG     C5   4370     0.1991      12.010000
  4371          C    285     DG     C6   4371     0.4918      12.010000
  4372          O    285     DG     O6   4372    -0.5699         16.000000
  4373         NA    285     DG     N1   4373    -0.5053      11.994000
  4374          H    285     DG     H1   4374      0.352      3.024000
  4375         CA    285     DG     C2   4375     0.7432      12.010000
  4376         N2    285     DG     N2   4376     -0.923      9.978000
  4377          H    285     DG    H21   4377     0.4235      3.024000
  4378          H    285     DG    H22   4378     0.4235      3.024000
  4379         NC    285     DG     N3   4379    -0.6636      14.010000
  4380         CB    285     DG     C4   4380     0.1814      12.010000
  4381         C7    285     DG    C3'   4381     0.0713      9.994000
  4382         H1    285     DG    H3'   4382     0.0985      3.024000
  4383         CT    285     DG    C2'   4383    -0.0854      7.978000
  4384         HC    285     DG   H2'1   4384     0.0718      3.024000
  4385         HC    285     DG   H2'2   4385     0.0718      3.024000
  4386         OS    285     DG    O3'   4386    -0.5232         16.000000   ; qtot -138.3
; residue 286 DG  rtp DG   q -1.0
  4387          P    286     DG      P   4387     1.1659      30.970000
  4388         O2    286     DG    O1P   4388    -0.7761         16.000000
  4389         O2    286     DG    O2P   4389    -0.7761         16.000000
  4390         OS    286     DG    O5'   4390    -0.4954         16.000000
  4391         CJ    286     DG    C5'   4391    -0.0069      7.978000
  4392         H1    286     DG   H5'1   4392     0.0754      3.024000
  4393         H1    286     DG   H5'2   4393     0.0754      3.024000
  4394         CT    286     DG    C4'   4394     0.1629      9.994000
  4395         H1    286     DG    H4'   4395     0.1176      3.024000
  4396         OS    286     DG    O4'   4396    -0.3691         16.000000
  4397         CT    286     DG    C1'   4397     0.0358      9.994000
  4398         H2    286     DG    H1'   4398     0.1746      3.024000
  4399         N*    286     DG     N9   4399     0.0577      14.010000
  4400         CK    286     DG     C8   4400     0.0736      9.994000
  4401         H5    286     DG     H8   4401     0.1997      3.024000
  4402         NB    286     DG     N7   4402    -0.5725      14.010000
  4403         CB    286     DG     C5   4403     0.1991      12.010000
  4404          C    286     DG     C6   4404     0.4918      12.010000
  4405          O    286     DG     O6   4405    -0.5699         16.000000
  4406         NA    286     DG     N1   4406    -0.5053      11.994000
  4407          H    286     DG     H1   4407      0.352      3.024000
  4408         CA    286     DG     C2   4408     0.7432      12.010000
  4409         N2    286     DG     N2   4409     -0.923      9.978000
  4410          H    286     DG    H21   4410     0.4235      3.024000
  4411          H    286     DG    H22   4411     0.4235      3.024000
  4412         NC    286     DG     N3   4412    -0.6636      14.010000
  4413         CB    286     DG     C4   4413     0.1814      12.010000
  4414         C7    286     DG    C3'   4414     0.0713      9.994000
  4415         H1    286     DG    H3'   4415     0.0985      3.024000
  4416         CT    286     DG    C2'   4416    -0.0854      7.978000
  4417         HC    286     DG   H2'1   4417     0.0718      3.024000
  4418         HC    286     DG   H2'2   4418     0.0718      3.024000
  4419         OS    286     DG    O3'   4419    -0.5232         16.000000   ; qtot -139.3
; residue 287 DG  rtp DG   q -1.0
  4420          P    287     DG      P   4420     1.1659      30.970000
  4421         O2    287     DG    O1P   4421    -0.7761         16.000000
  4422         O2    287     DG    O2P   4422    -0.7761         16.000000
  4423         OS    287     DG    O5'   4423    -0.4954         16.000000
  4424         CJ    287     DG    C5'   4424    -0.0069      7.978000
  4425         H1    287     DG   H5'1   4425     0.0754      3.024000
  4426         H1    287     DG   H5'2   4426     0.0754      3.024000
  4427         CT    287     DG    C4'   4427     0.1629      9.994000
  4428         H1    287     DG    H4'   4428     0.1176      3.024000
  4429         OS    287     DG    O4'   4429    -0.3691         16.000000
  4430         CT    287     DG    C1'   4430     0.0358      9.994000
  4431         H2    287     DG    H1'   4431     0.1746      3.024000
  4432         N*    287     DG     N9   4432     0.0577      14.010000
  4433         CK    287     DG     C8   4433     0.0736      9.994000
  4434         H5    287     DG     H8   4434     0.1997      3.024000
  4435         NB    287     DG     N7   4435    -0.5725      14.010000
  4436         CB    287     DG     C5   4436     0.1991      12.010000
  4437          C    287     DG     C6   4437     0.4918      12.010000
  4438          O    287     DG     O6   4438    -0.5699         16.000000
  4439         NA    287     DG     N1   4439    -0.5053      11.994000
  4440          H    287     DG     H1   4440      0.352      3.024000
  4441         CA    287     DG     C2   4441     0.7432      12.010000
  4442         N2    287     DG     N2   4442     -0.923      9.978000
  4443          H    287     DG    H21   4443     0.4235      3.024000
  4444          H    287     DG    H22   4444     0.4235      3.024000
  4445         NC    287     DG     N3   4445    -0.6636      14.010000
  4446         CB    287     DG     C4   4446     0.1814      12.010000
  4447         C7    287     DG    C3'   4447     0.0713      9.994000
  4448         H1    287     DG    H3'   4448     0.0985      3.024000
  4449         CT    287     DG    C2'   4449    -0.0854      7.978000
  4450         HC    287     DG   H2'1   4450     0.0718      3.024000
  4451         HC    287     DG   H2'2   4451     0.0718      3.024000
  4452         OS    287     DG    O3'   4452    -0.5232         16.000000   ; qtot -140.3
; residue 288 DC  rtp DC   q -1.0
  4453          P    288     DC      P   4453     1.1659      30.970000
  4454         O2    288     DC    O1P   4454    -0.7761         16.000000
  4455         O2    288     DC    O2P   4455    -0.7761         16.000000
  4456         OS    288     DC    O5'   4456    -0.4954         16.000000
  4457         CJ    288     DC    C5'   4457    -0.0069      7.978000
  4458         H1    288     DC   H5'1   4458     0.0754      3.024000
  4459         H1    288     DC   H5'2   4459     0.0754      3.024000
  4460         CT    288     DC    C4'   4460     0.1629      9.994000
  4461         H1    288     DC    H4'   4461     0.1176      3.024000
  4462         OS    288     DC    O4'   4462    -0.3691         16.000000
  4463         CT    288     DC    C1'   4463    -0.0116      9.994000
  4464         H2    288     DC    H1'   4464     0.1963      3.024000
  4465         N*    288     DC     N1   4465    -0.0339      14.010000
  4466         C1    288     DC     C6   4466    -0.0183      9.994000
  4467         H4    288     DC     H6   4467     0.2293      3.024000
  4468         C1    288     DC     C5   4468    -0.5222      9.994000
  4469         HA    288     DC     H5   4469     0.1863      3.024000
  4470         CA    288     DC     C4   4470     0.8439      12.010000
  4471         N2    288     DC     N4   4471    -0.9773      9.978000
  4472          H    288     DC    H41   4472     0.4314      3.024000
  4473          H    288     DC    H42   4473     0.4314      3.024000
  4474         NC    288     DC     N3   4474    -0.7748      14.010000
  4475          C    288     DC     C2   4475     0.7959      12.010000
  4476          O    288     DC     O2   4476    -0.6548         16.000000
  4477         C7    288     DC    C3'   4477     0.0713      9.994000
  4478         H1    288     DC    H3'   4478     0.0985      3.024000
  4479         CT    288     DC    C2'   4479    -0.0854      7.978000
  4480         HC    288     DC   H2'1   4480     0.0718      3.024000
  4481         HC    288     DC   H2'2   4481     0.0718      3.024000
  4482         OS    288     DC    O3'   4482    -0.5232         16.000000   ; qtot -141.3
; residue 289 DC  rtp DC   q -1.0
  4483          P    289     DC      P   4483     1.1659      30.970000
  4484         O2    289     DC    O1P   4484    -0.7761         16.000000
  4485         O2    289     DC    O2P   4485    -0.7761         16.000000
  4486         OS    289     DC    O5'   4486    -0.4954         16.000000
  4487         CJ    289     DC    C5'   4487    -0.0069      7.978000
  4488         H1    289     DC   H5'1   4488     0.0754      3.024000
  4489         H1    289     DC   H5'2   4489     0.0754      3.024000
  4490         CT    289     DC    C4'   4490     0.1629      9.994000
  4491         H1    289     DC    H4'   4491     0.1176      3.024000
  4492         OS    289     DC    O4'   4492    -0.3691         16.000000
  4493         CT    289     DC    C1'   4493    -0.0116      9.994000
  4494         H2    289     DC    H1'   4494     0.1963      3.024000
  4495         N*    289     DC     N1   4495    -0.0339      14.010000
  4496         C1    289     DC     C6   4496    -0.0183      9.994000
  4497         H4    289     DC     H6   4497     0.2293      3.024000
  4498         C1    289     DC     C5   4498    -0.5222      9.994000
  4499         HA    289     DC     H5   4499     0.1863      3.024000
  4500         CA    289     DC     C4   4500     0.8439      12.010000
  4501         N2    289     DC     N4   4501    -0.9773      9.978000
  4502          H    289     DC    H41   4502     0.4314      3.024000
  4503          H    289     DC    H42   4503     0.4314      3.024000
  4504         NC    289     DC     N3   4504    -0.7748      14.010000
  4505          C    289     DC     C2   4505     0.7959      12.010000
  4506          O    289     DC     O2   4506    -0.6548         16.000000
  4507         C7    289     DC    C3'   4507     0.0713      9.994000
  4508         H1    289     DC    H3'   4508     0.0985      3.024000
  4509         CT    289     DC    C2'   4509    -0.0854      7.978000
  4510         HC    289     DC   H2'1   4510     0.0718      3.024000
  4511         HC    289     DC   H2'2   4511     0.0718      3.024000
  4512         OS    289     DC    O3'   4512    -0.5232         16.000000   ; qtot -142.3
; residue 290 DG  rtp DG   q -1.0
  4513          P    290     DG      P   4513     1.1659      30.970000
  4514         O2    290     DG    O1P   4514    -0.7761         16.000000
  4515         O2    290     DG    O2P   4515    -0.7761         16.000000
  4516         OS    290     DG    O5'   4516    -0.4954         16.000000
  4517         CJ    290     DG    C5'   4517    -0.0069      7.978000
  4518         H1    290     DG   H5'1   4518     0.0754      3.024000
  4519         H1    290     DG   H5'2   4519     0.0754      3.024000
  4520         CT    290     DG    C4'   4520     0.1629      9.994000
  4521         H1    290     DG    H4'   4521     0.1176      3.024000
  4522         OS    290     DG    O4'   4522    -0.3691         16.000000
  4523         CT    290     DG    C1'   4523     0.0358      9.994000
  4524         H2    290     DG    H1'   4524     0.1746      3.024000
  4525         N*    290     DG     N9   4525     0.0577      14.010000
  4526         CK    290     DG     C8   4526     0.0736      9.994000
  4527         H5    290     DG     H8   4527     0.1997      3.024000
  4528         NB    290     DG     N7   4528    -0.5725      14.010000
  4529         CB    290     DG     C5   4529     0.1991      12.010000
  4530          C    290     DG     C6   4530     0.4918      12.010000
  4531          O    290     DG     O6   4531    -0.5699         16.000000
  4532         NA    290     DG     N1   4532    -0.5053      11.994000
  4533          H    290     DG     H1   4533      0.352      3.024000
  4534         CA    290     DG     C2   4534     0.7432      12.010000
  4535         N2    290     DG     N2   4535     -0.923      9.978000
  4536          H    290     DG    H21   4536     0.4235      3.024000
  4537          H    290     DG    H22   4537     0.4235      3.024000
  4538         NC    290     DG     N3   4538    -0.6636      14.010000
  4539         CB    290     DG     C4   4539     0.1814      12.010000
  4540         C7    290     DG    C3'   4540     0.0713      9.994000
  4541         H1    290     DG    H3'   4541     0.0985      3.024000
  4542         CT    290     DG    C2'   4542    -0.0854      7.978000
  4543         HC    290     DG   H2'1   4543     0.0718      3.024000
  4544         HC    290     DG   H2'2   4544     0.0718      3.024000
  4545         OS    290     DG    O3'   4545    -0.5232         16.000000   ; qtot -143.3
; residue 291 DG  rtp DG   q -1.0
  4546          P    291     DG      P   4546     1.1659      30.970000
  4547         O2    291     DG    O1P   4547    -0.7761         16.000000
  4548         O2    291     DG    O2P   4548    -0.7761         16.000000
  4549         OS    291     DG    O5'   4549    -0.4954         16.000000
  4550         CJ    291     DG    C5'   4550    -0.0069      7.978000
  4551         H1    291     DG   H5'1   4551     0.0754      3.024000
  4552         H1    291     DG   H5'2   4552     0.0754      3.024000
  4553         CT    291     DG    C4'   4553     0.1629      9.994000
  4554         H1    291     DG    H4'   4554     0.1176      3.024000
  4555         OS    291     DG    O4'   4555    -0.3691         16.000000
  4556         CT    291     DG    C1'   4556     0.0358      9.994000
  4557         H2    291     DG    H1'   4557     0.1746      3.024000
  4558         N*    291     DG     N9   4558     0.0577      14.010000
  4559         CK    291     DG     C8   4559     0.0736      9.994000
  4560         H5    291     DG     H8   4560     0.1997      3.024000
  4561         NB    291     DG     N7   4561    -0.5725      14.010000
  4562         CB    291     DG     C5   4562     0.1991      12.010000
  4563          C    291     DG     C6   4563     0.4918      12.010000
  4564          O    291     DG     O6   4564    -0.5699         16.000000
  4565         NA    291     DG     N1   4565    -0.5053      11.994000
  4566          H    291     DG     H1   4566      0.352      3.024000
  4567         CA    291     DG     C2   4567     0.7432      12.010000
  4568         N2    291     DG     N2   4568     -0.923      9.978000
  4569          H    291     DG    H21   4569     0.4235      3.024000
  4570          H    291     DG    H22   4570     0.4235      3.024000
  4571         NC    291     DG     N3   4571    -0.6636      14.010000
  4572         CB    291     DG     C4   4572     0.1814      12.010000
  4573         C7    291     DG    C3'   4573     0.0713      9.994000
  4574         H1    291     DG    H3'   4574     0.0985      3.024000
  4575         CT    291     DG    C2'   4575    -0.0854      7.978000
  4576         HC    291     DG   H2'1   4576     0.0718      3.024000
  4577         HC    291     DG   H2'2   4577     0.0718      3.024000
  4578         OS    291     DG    O3'   4578    -0.5232         16.000000   ; qtot -144.3
; residue 292 DG  rtp DG3  q -0.7
  4579          P    292     DG      P   4579     1.1659      30.970000
  4580         O2    292     DG    O1P   4580    -0.7761         16.000000
  4581         O2    292     DG    O2P   4581    -0.7761         16.000000
  4582         OS    292     DG    O5'   4582    -0.4954         16.000000
  4583         CJ    292     DG    C5'   4583    -0.0069      7.978000
  4584         H1    292     DG   H5'1   4584     0.0754      3.024000
  4585         H1    292     DG   H5'2   4585     0.0754      3.024000
  4586         CT    292     DG    C4'   4586     0.1629      9.994000
  4587         H1    292     DG    H4'   4587     0.1176      3.024000
  4588         OS    292     DG    O4'   4588    -0.3691         16.000000
  4589         CT    292     DG    C1'   4589     0.0358      9.994000
  4590         H2    292     DG    H1'   4590     0.1746      3.024000
  4591         N*    292     DG     N9   4591     0.0577      14.010000
  4592         CK    292     DG     C8   4592     0.0736      9.994000
  4593         H5    292     DG     H8   4593     0.1997      3.024000
  4594         NB    292     DG     N7   4594    -0.5725      14.010000
  4595         CB    292     DG     C5   4595     0.1991      12.010000
  4596          C    292     DG     C6   4596     0.4918      12.010000
  4597          O    292     DG     O6   4597    -0.5699         16.000000
  4598         NA    292     DG     N1   4598    -0.5053      11.994000
  4599          H    292     DG     H1   4599      0.352      3.024000
  4600         CA    292     DG     C2   4600     0.7432      12.010000
  4601         N2    292     DG     N2   4601     -0.923      9.978000
  4602          H    292     DG    H21   4602     0.4235      3.024000
  4603          H    292     DG    H22   4603     0.4235      3.024000
  4604         NC    292     DG     N3   4604    -0.6636      14.010000
  4605         CB    292     DG     C4   4605     0.1814      12.010000
  4606         C7    292     DG    C3'   4606     0.0713      9.994000
  4607         H1    292     DG    H3'   4607     0.0985      3.024000
  4608         CT    292     DG    C2'   4608    -0.0854      7.978000
  4609         HC    292     DG   H2'1   4609     0.0718      3.024000
  4610         HC    292     DG   H2'2   4610     0.0718      3.024000
  4611         OH    292     DG    O3'   4611    -0.6549         13.984000
  4612         HO    292     DG    H3T   4612     0.4396      3.024000   ; qtot -145

[ bonds ]
;  ai    aj funct            c0            c1            c2            c3
    1     2     1 
    1     3     1 
    3     4     1 
    3     5     1 
    3     6     1 
    6     7     1 
    6     8     1 
    6    25     1 
    8     9     1 
    9    10     1 
    9    11     1 
    9    27     1 
   11    12     1 
   11    24     1 
   12    13     1 
   12    14     1 
   14    15     1 
   15    16     1 
   15    24     1 
   16    17     1 
   16    20     1 
   17    18     1 
   17    19     1 
   20    21     1 
   21    22     1 
   21    23     1 
   23    24     1 
   25    26     1 
   25    27     1 
   25    30     1 
   27    28     1 
   27    29     1 
   30    31     1 
   31    32     1 
   31    33     1 
   31    34     1 
   34    35     1 
   35    36     1 
   35    37     1 
   35    38     1 
   38    39     1 
   38    40     1 
   38    58     1 
   40    41     1 
   41    42     1 
   41    43     1 
   41    60     1 
   43    44     1 
   43    57     1 
   44    45     1 
   44    46     1 
   46    47     1 
   47    48     1 
   47    57     1 
   48    49     1 
   48    50     1 
   50    51     1 
   50    52     1 
   52    53     1 
   52    56     1 
   53    54     1 
   53    55     1 
   56    57     1 
   58    59     1 
   58    60     1 
   58    63     1 
   60    61     1 
   60    62     1 
   63    64     1 
   64    65     1 
   64    66     1 
   64    67     1 
   67    68     1 
   68    69     1 
   68    70     1 
   68    71     1 
   71    72     1 
   71    73     1 
   71    91     1 
   73    74     1 
   74    75     1 
   74    76     1 
   74    93     1 
   76    77     1 
   76    90     1 
   77    78     1 
   77    79     1 
   79    80     1 
   80    81     1 
   80    90     1 
   81    82     1 
   81    83     1 
   83    84     1 
   83    85     1 
   85    86     1 
   85    89     1 
   86    87     1 
   86    88     1 
   89    90     1 
   91    92     1 
   91    93     1 
   91    96     1 
   93    94     1 
   93    95     1 
   96    97     1 
   97    98     1 
   97    99     1 
   97   100     1 
  100   101     1 
  101   102     1 
  101   103     1 
  101   104     1 
  104   105     1 
  104   106     1 
  104   124     1 
  106   107     1 
  107   108     1 
  107   109     1 
  107   126     1 
  109   110     1 
  109   123     1 
  110   111     1 
  110   112     1 
  112   113     1 
  113   114     1 
  113   123     1 
  114   115     1 
  114   116     1 
  116   117     1 
  116   118     1 
  118   119     1 
  118   122     1 
  119   120     1 
  119   121     1 
  122   123     1 
  124   125     1 
  124   126     1 
  124   129     1 
  126   127     1 
  126   128     1 
  129   130     1 
  130   131     1 
  130   132     1 
  130   133     1 
  133   134     1 
  134   135     1 
  134   136     1 
  134   137     1 
  137   138     1 
  137   139     1 
  137   156     1 
  139   140     1 
  140   141     1 
  140   142     1 
  140   158     1 
  142   143     1 
  142   154     1 
  143   144     1 
  143   145     1 
  145   146     1 
  145   150     1 
  146   147     1 
  146   148     1 
  146   149     1 
  150   151     1 
  150   152     1 
  152   153     1 
  152   154     1 
  154   155     1 
  156   157     1 
  156   158     1 
  156   161     1 
  158   159     1 
  158   160     1 
  161   162     1 
  162   163     1 
  162   164     1 
  162   165     1 
  165   166     1 
  166   167     1 
  166   168     1 
  166   169     1 
  169   170     1 
  169   171     1 
  169   186     1 
  171   172     1 
  172   173     1 
  172   174     1 
  172   188     1 
  174   175     1 
  174   184     1 
  175   176     1 
  175   177     1 
  177   178     1 
  177   179     1 
  179   180     1 
  179   183     1 
  180   181     1 
  180   182     1 
  183   184     1 
  184   185     1 
  186   187     1 
  186   188     1 
  186   191     1 
  188   189     1 
  188   190     1 
  191   192     1 
  192   193     1 
  192   194     1 
  192   195     1 
  195   196     1 
  196   197     1 
  196   198     1 
  196   199     1 
  199   200     1 
  199   201     1 
  199   219     1 
  201   202     1 
  202   203     1 
  202   204     1 
  202   221     1 
  204   205     1 
  204   218     1 
  205   206     1 
  205   207     1 
  207   208     1 
  208   209     1 
  208   218     1 
  209   210     1 
  209   211     1 
  211   212     1 
  211   213     1 
  213   214     1 
  213   217     1 
  214   215     1 
  214   216     1 
  217   218     1 
  219   220     1 
  219   221     1 
  219   224     1 
  221   222     1 
  221   223     1 
  224   225     1 
  225   226     1 
  225   227     1 
  225   228     1 
  228   229     1 
  229   230     1 
  229   231     1 
  229   232     1 
  232   233     1 
  232   234     1 
  232   252     1 
  234   235     1 
  235   236     1 
  235   237     1 
  235   254     1 
  237   238     1 
  237   251     1 
  238   239     1 
  238   240     1 
  240   241     1 
  241   242     1 
  241   251     1 
  242   243     1 
  242   244     1 
  244   245     1 
  244   246     1 
  246   247     1 
  246   250     1 
  247   248     1 
  247   249     1 
  250   251     1 
  252   253     1 
  252   254     1 
  252   257     1 
  254   255     1 
  254   256     1 
  257   258     1 
  258   259     1 
  258   260     1 
  258   261     1 
  261   262     1 
  262   263     1 
  262   264     1 
  262   265     1 
  265   266     1 
  265   267     1 
  265   285     1 
  267   268     1 
  268   269     1 
  268   270     1 
  268   287     1 
  270   271     1 
  270   284     1 
  271   272     1 
  271   273     1 
  273   274     1 
  274   275     1 
  274   284     1 
  275   276     1 
  275   277     1 
  277   278     1 
  277   279     1 
  279   280     1 
  279   283     1 
  280   281     1 
  280   282     1 
  283   284     1 
  285   286     1 
  285   287     1 
  285   290     1 
  287   288     1 
  287   289     1 
  290   291     1 
  291   292     1 
  291   293     1 
  291   294     1 
  294   295     1 
  295   296     1 
  295   297     1 
  295   298     1 
  298   299     1 
  298   300     1 
  298   317     1 
  300   301     1 
  301   302     1 
  301   303     1 
  301   319     1 
  303   304     1 
  303   316     1 
  304   305     1 
  304   306     1 
  306   307     1 
  307   308     1 
  307   316     1 
  308   309     1 
  308   312     1 
  309   310     1 
  309   311     1 
  312   313     1 
  313   314     1 
  313   315     1 
  315   316     1 
  317   318     1 
  317   319     1 
  317   322     1 
  319   320     1 
  319   321     1 
  322   323     1 
  323   324     1 
  323   325     1 
  323   326     1 
  326   327     1 
  327   328     1 
  327   329     1 
  327   330     1 
  330   331     1 
  330   332     1 
  330   347     1 
  332   333     1 
  333   334     1 
  333   335     1 
  333   349     1 
  335   336     1 
  335   345     1 
  336   337     1 
  336   338     1 
  338   339     1 
  338   340     1 
  340   341     1 
  340   344     1 
  341   342     1 
  341   343     1 
  344   345     1 
  345   346     1 
  347   348     1 
  347   349     1 
  347   352     1 
  349   350     1 
  349   351     1 
  352   353     1 
  353   354     1 
  353   355     1 
  353   356     1 
  356   357     1 
  357   358     1 
  357   359     1 
  357   360     1 
  360   361     1 
  360   362     1 
  360   377     1 
  362   363     1 
  363   364     1 
  363   365     1 
  363   379     1 
  365   366     1 
  365   375     1 
  366   367     1 
  366   368     1 
  368   369     1 
  368   370     1 
  370   371     1 
  370   374     1 
  371   372     1 
  371   373     1 
  374   375     1 
  375   376     1 
  377   378     1 
  377   379     1 
  377   382     1 
  379   380     1 
  379   381     1 
  382   383     1 
  383   384     1 
  383   385     1 
  383   386     1 
  386   387     1 
  387   388     1 
  387   389     1 
  387   390     1 
  390   391     1 
  390   392     1 
  390   407     1 
  392   393     1 
  393   394     1 
  393   395     1 
  393   409     1 
  395   396     1 
  395   405     1 
  396   397     1 
  396   398     1 
  398   399     1 
  398   400     1 
  400   401     1 
  400   404     1 
  401   402     1 
  401   403     1 
  404   405     1 
  405   406     1 
  407   408     1 
  407   409     1 
  407   412     1 
  409   410     1 
  409   411     1 
  412   413     1 
  413   414     1 
  413   415     1 
  413   416     1 
  416   417     1 
  417   418     1 
  417   419     1 
  417   420     1 
  420   421     1 
  420   422     1 
  420   440     1 
  422   423     1 
  423   424     1 
  423   425     1 
  423   442     1 
  425   426     1 
  425   439     1 
  426   427     1 
  426   428     1 
  428   429     1 
  429   430     1 
  429   439     1 
  430   431     1 
  430   432     1 
  432   433     1 
  432   434     1 
  434   435     1 
  434   438     1 
  435   436     1 
  435   437     1 
  438   439     1 
  440   441     1 
  440   442     1 
  440   445     1 
  442   443     1 
  442   444     1 
  445   446     1 
  446   447     1 
  446   448     1 
  446   449     1 
  449   450     1 
  450   451     1 
  450   452     1 
  450   453     1 
  453   454     1 
  453   455     1 
  453   473     1 
  455   456     1 
  456   457     1 
  456   458     1 
  456   475     1 
  458   459     1 
  458   472     1 
  459   460     1 
  459   461     1 
  461   462     1 
  462   463     1 
  462   472     1 
  463   464     1 
  463   465     1 
  465   466     1 
  465   467     1 
  467   468     1 
  467   471     1 
  468   469     1 
  468   470     1 
  471   472     1 
  473   474     1 
  473   475     1 
  473   478     1 
  475   476     1 
  475   477     1 
  478   479     1 
  479   480     1 
  479   481     1 
  479   482     1 
  482   483     1 
  483   484     1 
  483   485     1 
  483   486     1 
  486   487     1 
  486   488     1 
  486   506     1 
  488   489     1 
  489   490     1 
  489   491     1 
  489   508     1 
  491   492     1 
  491   505     1 
  492   493     1 
  492   494     1 
  494   495     1 
  495   496     1 
  495   505     1 
  496   497     1 
  496   498     1 
  498   499     1 
  498   500     1 
  500   501     1 
  500   504     1 
  501   502     1 
  501   503     1 
  504   505     1 
  506   507     1 
  506   508     1 
  506   511     1 
  508   509     1 
  508   510     1 
  511   512     1 
  512   513     1 
  512   514     1 
  512   515     1 
  515   516     1 
  516   517     1 
  516   518     1 
  516   519     1 
  519   520     1 
  519   521     1 
  519   536     1 
  521   522     1 
  522   523     1 
  522   524     1 
  522   538     1 
  524   525     1 
  524   534     1 
  525   526     1 
  525   527     1 
  527   528     1 
  527   529     1 
  529   530     1 
  529   533     1 
  530   531     1 
  530   532     1 
  533   534     1 
  534   535     1 
  536   537     1 
  536   538     1 
  536   541     1 
  538   539     1 
  538   540     1 
  541   542     1 
  542   543     1 
  542   544     1 
  542   545     1 
  545   546     1 
  546   547     1 
  546   548     1 
  546   549     1 
  549   550     1 
  549   551     1 
  549   568     1 
  551   552     1 
  552   553     1 
  552   554     1 
  552   570     1 
  554   555     1 
  554   567     1 
  555   556     1 
  555   557     1 
  557   558     1 
  558   559     1 
  558   567     1 
  559   560     1 
  559   563     1 
  560   561     1 
  560   562     1 
  563   564     1 
  564   565     1 
  564   566     1 
  566   567     1 
  568   569     1 
  568   570     1 
  568   573     1 
  570   571     1 
  570   572     1 
  573   574     1 
  574   575     1 
  574   576     1 
  574   577     1 
  577   578     1 
  578   579     1 
  578   580     1 
  578   581     1 
  581   582     1 
  581   583     1 
  581   601     1 
  583   584     1 
  584   585     1 
  584   586     1 
  584   603     1 
  586   587     1 
  586   600     1 
  587   588     1 
  587   589     1 
  589   590     1 
  590   591     1 
  590   600     1 
  591   592     1 
  591   593     1 
  593   594     1 
  593   595     1 
  595   596     1 
  595   599     1 
  596   597     1 
  596   598     1 
  599   600     1 
  601   602     1 
  601   603     1 
  601   606     1 
  603   604     1 
  603   605     1 
  606   607     1 
  607   608     1 
  607   609     1 
  607   610     1 
  610   611     1 
  611   612     1 
  611   613     1 
  611   614     1 
  614   615     1 
  614   616     1 
  614   634     1 
  616   617     1 
  617   618     1 
  617   619     1 
  617   636     1 
  619   620     1 
  619   633     1 
  620   621     1 
  620   622     1 
  622   623     1 
  623   624     1 
  623   633     1 
  624   625     1 
  624   626     1 
  626   627     1 
  626   628     1 
  628   629     1 
  628   632     1 
  629   630     1 
  629   631     1 
  632   633     1 
  634   635     1 
  634   636     1 
  634   639     1 
  636   637     1 
  636   638     1 
  639   640     1 
  640   641     1 
  640   642     1 
  640   643     1 
  643   644     1 
  644   645     1 
  644   646     1 
  644   647     1 
  647   648     1 
  647   649     1 
  647   667     1 
  649   650     1 
  650   651     1 
  650   652     1 
  650   669     1 
  652   653     1 
  652   666     1 
  653   654     1 
  653   655     1 
  655   656     1 
  656   657     1 
  656   666     1 
  657   658     1 
  657   659     1 
  659   660     1 
  659   661     1 
  661   662     1 
  661   665     1 
  662   663     1 
  662   664     1 
  665   666     1 
  667   668     1 
  667   669     1 
  667   672     1 
  669   670     1 
  669   671     1 
  672   673     1 
  673   674     1 
  673   675     1 
  673   676     1 
  676   677     1 
  677   678     1 
  677   679     1 
  677   680     1 
  680   681     1 
  680   682     1 
  680   700     1 
  682   683     1 
  683   684     1 
  683   685     1 
  683   702     1 
  685   686     1 
  685   699     1 
  686   687     1 
  686   688     1 
  688   689     1 
  689   690     1 
  689   699     1 
  690   691     1 
  690   692     1 
  692   693     1 
  692   694     1 
  694   695     1 
  694   698     1 
  695   696     1 
  695   697     1 
  698   699     1 
  700   701     1 
  700   702     1 
  700   705     1 
  702   703     1 
  702   704     1 
  705   706     1 
  706   707     1 
  706   708     1 
  706   709     1 
  709   710     1 
  710   711     1 
  710   712     1 
  710   713     1 
  713   714     1 
  713   715     1 
  713   730     1 
  715   716     1 
  716   717     1 
  716   718     1 
  716   732     1 
  718   719     1 
  718   728     1 
  719   720     1 
  719   721     1 
  721   722     1 
  721   723     1 
  723   724     1 
  723   727     1 
  724   725     1 
  724   726     1 
  727   728     1 
  728   729     1 
  730   731     1 
  730   732     1 
  730   735     1 
  732   733     1 
  732   734     1 
  735   736     1 
  736   737     1 
  736   738     1 
  736   739     1 
  739   740     1 
  740   741     1 
  740   742     1 
  740   743     1 
  743   744     1 
  743   745     1 
  743   760     1 
  745   746     1 
  746   747     1 
  746   748     1 
  746   762     1 
  748   749     1 
  748   758     1 
  749   750     1 
  749   751     1 
  751   752     1 
  751   753     1 
  753   754     1 
  753   757     1 
  754   755     1 
  754   756     1 
  757   758     1 
  758   759     1 
  760   761     1 
  760   762     1 
  760   765     1 
  762   763     1 
  762   764     1 
  765   766     1 
  766   767     1 
  766   768     1 
  766   769     1 
  769   770     1 
  770   771     1 
  770   772     1 
  770   773     1 
  773   774     1 
  773   775     1 
  773   790     1 
  775   776     1 
  776   777     1 
  776   778     1 
  776   792     1 
  778   779     1 
  778   788     1 
  779   780     1 
  779   781     1 
  781   782     1 
  781   783     1 
  783   784     1 
  783   787     1 
  784   785     1 
  784   786     1 
  787   788     1 
  788   789     1 
  790   791     1 
  790   792     1 
  790   795     1 
  792   793     1 
  792   794     1 
  795   796     1 
  796   797     1 
  796   798     1 
  796   799     1 
  799   800     1 
  800   801     1 
  800   802     1 
  800   803     1 
  803   804     1 
  803   805     1 
  803   822     1 
  805   806     1 
  806   807     1 
  806   808     1 
  806   824     1 
  808   809     1 
  808   821     1 
  809   810     1 
  809   811     1 
  811   812     1 
  812   813     1 
  812   821     1 
  813   814     1 
  813   817     1 
  814   815     1 
  814   816     1 
  817   818     1 
  818   819     1 
  818   820     1 
  820   821     1 
  822   823     1 
  822   824     1 
  822   827     1 
  824   825     1 
  824   826     1 
  827   828     1 
  828   829     1 
  828   830     1 
  828   831     1 
  831   832     1 
  832   833     1 
  832   834     1 
  832   835     1 
  835   836     1 
  835   837     1 
  835   855     1 
  837   838     1 
  838   839     1 
  838   840     1 
  838   857     1 
  840   841     1 
  840   854     1 
  841   842     1 
  841   843     1 
  843   844     1 
  844   845     1 
  844   854     1 
  845   846     1 
  845   847     1 
  847   848     1 
  847   849     1 
  849   850     1 
  849   853     1 
  850   851     1 
  850   852     1 
  853   854     1 
  855   856     1 
  855   857     1 
  855   860     1 
  857   858     1 
  857   859     1 
  860   861     1 
  861   862     1 
  861   863     1 
  861   864     1 
  864   865     1 
  865   866     1 
  865   867     1 
  865   868     1 
  868   869     1 
  868   870     1 
  868   888     1 
  870   871     1 
  871   872     1 
  871   873     1 
  871   890     1 
  873   874     1 
  873   887     1 
  874   875     1 
  874   876     1 
  876   877     1 
  877   878     1 
  877   887     1 
  878   879     1 
  878   880     1 
  880   881     1 
  880   882     1 
  882   883     1 
  882   886     1 
  883   884     1 
  883   885     1 
  886   887     1 
  888   889     1 
  888   890     1 
  888   893     1 
  890   891     1 
  890   892     1 
  893   894     1 
  894   895     1 
  894   896     1 
  894   897     1 
  897   898     1 
  898   899     1 
  898   900     1 
  898   901     1 
  901   902     1 
  901   903     1 
  901   920     1 
  903   904     1 
  904   905     1 
  904   906     1 
  904   922     1 
  906   907     1 
  906   919     1 
  907   908     1 
  907   909     1 
  909   910     1 
  910   911     1 
  910   919     1 
  911   912     1 
  911   915     1 
  912   913     1 
  912   914     1 
  915   916     1 
  916   917     1 
  916   918     1 
  918   919     1 
  920   921     1 
  920   922     1 
  920   925     1 
  922   923     1 
  922   924     1 
  925   926     1 
  926   927     1 
  926   928     1 
  926   929     1 
  929   930     1 
  930   931     1 
  930   932     1 
  930   933     1 
  933   934     1 
  933   935     1 
  933   953     1 
  935   936     1 
  936   937     1 
  936   938     1 
  936   955     1 
  938   939     1 
  938   952     1 
  939   940     1 
  939   941     1 
  941   942     1 
  942   943     1 
  942   952     1 
  943   944     1 
  943   945     1 
  945   946     1 
  945   947     1 
  947   948     1 
  947   951     1 
  948   949     1 
  948   950     1 
  951   952     1 
  953   954     1 
  953   955     1 
  953   958     1 
  955   956     1 
  955   957     1 
  958   959     1 
  959   960     1 
  959   961     1 
  959   962     1 
  962   963     1 
  963   964     1 
  963   965     1 
  963   966     1 
  966   967     1 
  966   968     1 
  966   986     1 
  968   969     1 
  969   970     1 
  969   971     1 
  969   988     1 
  971   972     1 
  971   985     1 
  972   973     1 
  972   974     1 
  974   975     1 
  975   976     1 
  975   985     1 
  976   977     1 
  976   978     1 
  978   979     1 
  978   980     1 
  980   981     1 
  980   984     1 
  981   982     1 
  981   983     1 
  984   985     1 
  986   987     1 
  986   988     1 
  986   991     1 
  988   989     1 
  988   990     1 
  991   992     1 
  992   993     1 
  992   994     1 
  992   995     1 
  995   996     1 
  996   997     1 
  996   998     1 
  996   999     1 
  999  1000     1 
  999  1001     1 
  999  1019     1 
 1001  1002     1 
 1002  1003     1 
 1002  1004     1 
 1002  1021     1 
 1004  1005     1 
 1004  1018     1 
 1005  1006     1 
 1005  1007     1 
 1007  1008     1 
 1008  1009     1 
 1008  1018     1 
 1009  1010     1 
 1009  1011     1 
 1011  1012     1 
 1011  1013     1 
 1013  1014     1 
 1013  1017     1 
 1014  1015     1 
 1014  1016     1 
 1017  1018     1 
 1019  1020     1 
 1019  1021     1 
 1019  1024     1 
 1021  1022     1 
 1021  1023     1 
 1024  1025     1 
 1025  1026     1 
 1025  1027     1 
 1025  1028     1 
 1028  1029     1 
 1029  1030     1 
 1029  1031     1 
 1029  1032     1 
 1032  1033     1 
 1032  1034     1 
 1032  1052     1 
 1034  1035     1 
 1035  1036     1 
 1035  1037     1 
 1035  1054     1 
 1037  1038     1 
 1037  1051     1 
 1038  1039     1 
 1038  1040     1 
 1040  1041     1 
 1041  1042     1 
 1041  1051     1 
 1042  1043     1 
 1042  1044     1 
 1044  1045     1 
 1044  1046     1 
 1046  1047     1 
 1046  1050     1 
 1047  1048     1 
 1047  1049     1 
 1050  1051     1 
 1052  1053     1 
 1052  1054     1 
 1052  1057     1 
 1054  1055     1 
 1054  1056     1 
 1057  1058     1 
 1058  1059     1 
 1058  1060     1 
 1058  1061     1 
 1061  1062     1 
 1062  1063     1 
 1062  1064     1 
 1062  1065     1 
 1065  1066     1 
 1065  1067     1 
 1065  1084     1 
 1067  1068     1 
 1068  1069     1 
 1068  1070     1 
 1068  1086     1 
 1070  1071     1 
 1070  1082     1 
 1071  1072     1 
 1071  1073     1 
 1073  1074     1 
 1073  1078     1 
 1074  1075     1 
 1074  1076     1 
 1074  1077     1 
 1078  1079     1 
 1078  1080     1 
 1080  1081     1 
 1080  1082     1 
 1082  1083     1 
 1084  1085     1 
 1084  1086     1 
 1084  1089     1 
 1086  1087     1 
 1086  1088     1 
 1089  1090     1 
 1090  1091     1 
 1090  1092     1 
 1090  1093     1 
 1093  1094     1 
 1094  1095     1 
 1094  1096     1 
 1094  1097     1 
 1097  1098     1 
 1097  1099     1 
 1097  1117     1 
 1099  1100     1 
 1100  1101     1 
 1100  1102     1 
 1100  1119     1 
 1102  1103     1 
 1102  1116     1 
 1103  1104     1 
 1103  1105     1 
 1105  1106     1 
 1106  1107     1 
 1106  1116     1 
 1107  1108     1 
 1107  1109     1 
 1109  1110     1 
 1109  1111     1 
 1111  1112     1 
 1111  1115     1 
 1112  1113     1 
 1112  1114     1 
 1115  1116     1 
 1117  1118     1 
 1117  1119     1 
 1117  1122     1 
 1119  1120     1 
 1119  1121     1 
 1122  1123     1 
 1123  1124     1 
 1123  1125     1 
 1123  1126     1 
 1126  1127     1 
 1127  1128     1 
 1127  1129     1 
 1127  1130     1 
 1130  1131     1 
 1130  1132     1 
 1130  1150     1 
 1132  1133     1 
 1133  1134     1 
 1133  1135     1 
 1133  1152     1 
 1135  1136     1 
 1135  1149     1 
 1136  1137     1 
 1136  1138     1 
 1138  1139     1 
 1139  1140     1 
 1139  1149     1 
 1140  1141     1 
 1140  1142     1 
 1142  1143     1 
 1142  1144     1 
 1144  1145     1 
 1144  1148     1 
 1145  1146     1 
 1145  1147     1 
 1148  1149     1 
 1150  1151     1 
 1150  1152     1 
 1150  1155     1 
 1152  1153     1 
 1152  1154     1 
 1155  1156     1 
 1156  1157     1 
 1156  1158     1 
 1156  1159     1 
 1159  1160     1 
 1160  1161     1 
 1160  1162     1 
 1160  1163     1 
 1163  1164     1 
 1163  1165     1 
 1163  1182     1 
 1165  1166     1 
 1166  1167     1 
 1166  1168     1 
 1166  1184     1 
 1168  1169     1 
 1168  1180     1 
 1169  1170     1 
 1169  1171     1 
 1171  1172     1 
 1171  1176     1 
 1172  1173     1 
 1172  1174     1 
 1172  1175     1 
 1176  1177     1 
 1176  1178     1 
 1178  1179     1 
 1178  1180     1 
 1180  1181     1 
 1182  1183     1 
 1182  1184     1 
 1182  1187     1 
 1184  1185     1 
 1184  1186     1 
 1187  1188     1 
 1188  1189     1 
 1188  1190     1 
 1188  1191     1 
 1191  1192     1 
 1192  1193     1 
 1192  1194     1 
 1192  1195     1 
 1195  1196     1 
 1195  1197     1 
 1195  1212     1 
 1197  1198     1 
 1198  1199     1 
 1198  1200     1 
 1198  1214     1 
 1200  1201     1 
 1200  1210     1 
 1201  1202     1 
 1201  1203     1 
 1203  1204     1 
 1203  1205     1 
 1205  1206     1 
 1205  1209     1 
 1206  1207     1 
 1206  1208     1 
 1209  1210     1 
 1210  1211     1 
 1212  1213     1 
 1212  1214     1 
 1212  1217     1 
 1214  1215     1 
 1214  1216     1 
 1217  1218     1 
 1218  1219     1 
 1218  1220     1 
 1218  1221     1 
 1221  1222     1 
 1222  1223     1 
 1222  1224     1 
 1222  1225     1 
 1225  1226     1 
 1225  1227     1 
 1225  1242     1 
 1227  1228     1 
 1228  1229     1 
 1228  1230     1 
 1228  1244     1 
 1230  1231     1 
 1230  1240     1 
 1231  1232     1 
 1231  1233     1 
 1233  1234     1 
 1233  1235     1 
 1235  1236     1 
 1235  1239     1 
 1236  1237     1 
 1236  1238     1 
 1239  1240     1 
 1240  1241     1 
 1242  1243     1 
 1242  1244     1 
 1242  1247     1 
 1244  1245     1 
 1244  1246     1 
 1247  1248     1 
 1248  1249     1 
 1248  1250     1 
 1248  1251     1 
 1251  1252     1 
 1252  1253     1 
 1252  1254     1 
 1252  1255     1 
 1255  1256     1 
 1255  1257     1 
 1255  1275     1 
 1257  1258     1 
 1258  1259     1 
 1258  1260     1 
 1258  1277     1 
 1260  1261     1 
 1260  1274     1 
 1261  1262     1 
 1261  1263     1 
 1263  1264     1 
 1264  1265     1 
 1264  1274     1 
 1265  1266     1 
 1265  1267     1 
 1267  1268     1 
 1267  1269     1 
 1269  1270     1 
 1269  1273     1 
 1270  1271     1 
 1270  1272     1 
 1273  1274     1 
 1275  1276     1 
 1275  1277     1 
 1275  1280     1 
 1277  1278     1 
 1277  1279     1 
 1280  1281     1 
 1281  1282     1 
 1281  1283     1 
 1281  1284     1 
 1284  1285     1 
 1285  1286     1 
 1285  1287     1 
 1285  1288     1 
 1288  1289     1 
 1288  1290     1 
 1288  1305     1 
 1290  1291     1 
 1291  1292     1 
 1291  1293     1 
 1291  1307     1 
 1293  1294     1 
 1293  1303     1 
 1294  1295     1 
 1294  1296     1 
 1296  1297     1 
 1296  1298     1 
 1298  1299     1 
 1298  1302     1 
 1299  1300     1 
 1299  1301     1 
 1302  1303     1 
 1303  1304     1 
 1305  1306     1 
 1305  1307     1 
 1305  1310     1 
 1307  1308     1 
 1307  1309     1 
 1310  1311     1 
 1311  1312     1 
 1311  1313     1 
 1311  1314     1 
 1314  1315     1 
 1315  1316     1 
 1315  1317     1 
 1315  1318     1 
 1318  1319     1 
 1318  1320     1 
 1318  1337     1 
 1320  1321     1 
 1321  1322     1 
 1321  1323     1 
 1321  1339     1 
 1323  1324     1 
 1323  1335     1 
 1324  1325     1 
 1324  1326     1 
 1326  1327     1 
 1326  1331     1 
 1327  1328     1 
 1327  1329     1 
 1327  1330     1 
 1331  1332     1 
 1331  1333     1 
 1333  1334     1 
 1333  1335     1 
 1335  1336     1 
 1337  1338     1 
 1337  1339     1 
 1337  1342     1 
 1339  1340     1 
 1339  1341     1 
 1342  1343     1 
 1343  1344     1 
 1343  1345     1 
 1343  1346     1 
 1346  1347     1 
 1347  1348     1 
 1347  1349     1 
 1347  1350     1 
 1350  1351     1 
 1350  1352     1 
 1350  1367     1 
 1352  1353     1 
 1353  1354     1 
 1353  1355     1 
 1353  1369     1 
 1355  1356     1 
 1355  1365     1 
 1356  1357     1 
 1356  1358     1 
 1358  1359     1 
 1358  1360     1 
 1360  1361     1 
 1360  1364     1 
 1361  1362     1 
 1361  1363     1 
 1364  1365     1 
 1365  1366     1 
 1367  1368     1 
 1367  1369     1 
 1367  1372     1 
 1369  1370     1 
 1369  1371     1 
 1372  1373     1 
 1373  1374     1 
 1373  1375     1 
 1373  1376     1 
 1376  1377     1 
 1377  1378     1 
 1377  1379     1 
 1377  1380     1 
 1380  1381     1 
 1380  1382     1 
 1380  1397     1 
 1382  1383     1 
 1383  1384     1 
 1383  1385     1 
 1383  1399     1 
 1385  1386     1 
 1385  1395     1 
 1386  1387     1 
 1386  1388     1 
 1388  1389     1 
 1388  1390     1 
 1390  1391     1 
 1390  1394     1 
 1391  1392     1 
 1391  1393     1 
 1394  1395     1 
 1395  1396     1 
 1397  1398     1 
 1397  1399     1 
 1397  1402     1 
 1399  1400     1 
 1399  1401     1 
 1402  1403     1 
 1403  1404     1 
 1403  1405     1 
 1403  1406     1 
 1406  1407     1 
 1407  1408     1 
 1407  1409     1 
 1407  1410     1 
 1410  1411     1 
 1410  1412     1 
 1410  1430     1 
 1412  1413     1 
 1413  1414     1 
 1413  1415     1 
 1413  1432     1 
 1415  1416     1 
 1415  1429     1 
 1416  1417     1 
 1416  1418     1 
 1418  1419     1 
 1419  1420     1 
 1419  1429     1 
 1420  1421     1 
 1420  1422     1 
 1422  1423     1 
 1422  1424     1 
 1424  1425     1 
 1424  1428     1 
 1425  1426     1 
 1425  1427     1 
 1428  1429     1 
 1430  1431     1 
 1430  1432     1 
 1430  1435     1 
 1432  1433     1 
 1432  1434     1 
 1435  1436     1 
 1436  1437     1 
 1436  1438     1 
 1436  1439     1 
 1439  1440     1 
 1440  1441     1 
 1440  1442     1 
 1440  1443     1 
 1443  1444     1 
 1443  1445     1 
 1443  1462     1 
 1445  1446     1 
 1446  1447     1 
 1446  1448     1 
 1446  1464     1 
 1448  1449     1 
 1448  1460     1 
 1449  1450     1 
 1449  1451     1 
 1451  1452     1 
 1451  1456     1 
 1452  1453     1 
 1452  1454     1 
 1452  1455     1 
 1456  1457     1 
 1456  1458     1 
 1458  1459     1 
 1458  1460     1 
 1460  1461     1 
 1462  1463     1 
 1462  1464     1 
 1462  1467     1 
 1464  1465     1 
 1464  1466     1 
 1467  1468     1 
 1468  1469     1 
 1468  1470     1 
 1468  1471     1 
 1471  1472     1 
 1472  1473     1 
 1472  1474     1 
 1472  1475     1 
 1475  1476     1 
 1475  1477     1 
 1475  1494     1 
 1477  1478     1 
 1478  1479     1 
 1478  1480     1 
 1478  1496     1 
 1480  1481     1 
 1480  1493     1 
 1481  1482     1 
 1481  1483     1 
 1483  1484     1 
 1484  1485     1 
 1484  1493     1 
 1485  1486     1 
 1485  1489     1 
 1486  1487     1 
 1486  1488     1 
 1489  1490     1 
 1490  1491     1 
 1490  1492     1 
 1492  1493     1 
 1494  1495     1 
 1494  1496     1 
 1494  1499     1 
 1496  1497     1 
 1496  1498     1 
 1499  1500     1 
 1500  1501     1 
 1500  1502     1 
 1500  1503     1 
 1503  1504     1 
 1504  1505     1 
 1504  1506     1 
 1504  1507     1 
 1507  1508     1 
 1507  1509     1 
 1507  1524     1 
 1509  1510     1 
 1510  1511     1 
 1510  1512     1 
 1510  1526     1 
 1512  1513     1 
 1512  1522     1 
 1513  1514     1 
 1513  1515     1 
 1515  1516     1 
 1515  1517     1 
 1517  1518     1 
 1517  1521     1 
 1518  1519     1 
 1518  1520     1 
 1521  1522     1 
 1522  1523     1 
 1524  1525     1 
 1524  1526     1 
 1524  1529     1 
 1526  1527     1 
 1526  1528     1 
 1529  1530     1 
 1530  1531     1 
 1530  1532     1 
 1530  1533     1 
 1533  1534     1 
 1534  1535     1 
 1534  1536     1 
 1534  1537     1 
 1537  1538     1 
 1537  1539     1 
 1537  1554     1 
 1539  1540     1 
 1540  1541     1 
 1540  1542     1 
 1540  1556     1 
 1542  1543     1 
 1542  1552     1 
 1543  1544     1 
 1543  1545     1 
 1545  1546     1 
 1545  1547     1 
 1547  1548     1 
 1547  1551     1 
 1548  1549     1 
 1548  1550     1 
 1551  1552     1 
 1552  1553     1 
 1554  1555     1 
 1554  1556     1 
 1554  1559     1 
 1556  1557     1 
 1556  1558     1 
 1559  1560     1 
 1560  1561     1 
 1560  1562     1 
 1560  1563     1 
 1563  1564     1 
 1564  1565     1 
 1564  1566     1 
 1564  1567     1 
 1567  1568     1 
 1567  1569     1 
 1567  1586     1 
 1569  1570     1 
 1570  1571     1 
 1570  1572     1 
 1570  1588     1 
 1572  1573     1 
 1572  1584     1 
 1573  1574     1 
 1573  1575     1 
 1575  1576     1 
 1575  1580     1 
 1576  1577     1 
 1576  1578     1 
 1576  1579     1 
 1580  1581     1 
 1580  1582     1 
 1582  1583     1 
 1582  1584     1 
 1584  1585     1 
 1586  1587     1 
 1586  1588     1 
 1586  1591     1 
 1588  1589     1 
 1588  1590     1 
 1591  1592     1 
 1592  1593     1 
 1592  1594     1 
 1592  1595     1 
 1595  1596     1 
 1596  1597     1 
 1596  1598     1 
 1596  1599     1 
 1599  1600     1 
 1599  1601     1 
 1599  1616     1 
 1601  1602     1 
 1602  1603     1 
 1602  1604     1 
 1602  1618     1 
 1604  1605     1 
 1604  1614     1 
 1605  1606     1 
 1605  1607     1 
 1607  1608     1 
 1607  1609     1 
 1609  1610     1 
 1609  1613     1 
 1610  1611     1 
 1610  1612     1 
 1613  1614     1 
 1614  1615     1 
 1616  1617     1 
 1616  1618     1 
 1616  1621     1 
 1618  1619     1 
 1618  1620     1 
 1621  1622     1 
 1622  1623     1 
 1622  1624     1 
 1622  1625     1 
 1625  1626     1 
 1626  1627     1 
 1626  1628     1 
 1626  1629     1 
 1629  1630     1 
 1629  1631     1 
 1629  1648     1 
 1631  1632     1 
 1632  1633     1 
 1632  1634     1 
 1632  1650     1 
 1634  1635     1 
 1634  1646     1 
 1635  1636     1 
 1635  1637     1 
 1637  1638     1 
 1637  1642     1 
 1638  1639     1 
 1638  1640     1 
 1638  1641     1 
 1642  1643     1 
 1642  1644     1 
 1644  1645     1 
 1644  1646     1 
 1646  1647     1 
 1648  1649     1 
 1648  1650     1 
 1648  1653     1 
 1650  1651     1 
 1650  1652     1 
 1653  1654     1 
 1654  1655     1 
 1654  1656     1 
 1654  1657     1 
 1657  1658     1 
 1658  1659     1 
 1658  1660     1 
 1658  1661     1 
 1661  1662     1 
 1661  1663     1 
 1661  1678     1 
 1663  1664     1 
 1664  1665     1 
 1664  1666     1 
 1664  1680     1 
 1666  1667     1 
 1666  1676     1 
 1667  1668     1 
 1667  1669     1 
 1669  1670     1 
 1669  1671     1 
 1671  1672     1 
 1671  1675     1 
 1672  1673     1 
 1672  1674     1 
 1675  1676     1 
 1676  1677     1 
 1678  1679     1 
 1678  1680     1 
 1678  1683     1 
 1680  1681     1 
 1680  1682     1 
 1683  1684     1 
 1684  1685     1 
 1684  1686     1 
 1684  1687     1 
 1687  1688     1 
 1688  1689     1 
 1688  1690     1 
 1688  1691     1 
 1691  1692     1 
 1691  1693     1 
 1691  1710     1 
 1693  1694     1 
 1694  1695     1 
 1694  1696     1 
 1694  1712     1 
 1696  1697     1 
 1696  1708     1 
 1697  1698     1 
 1697  1699     1 
 1699  1700     1 
 1699  1704     1 
 1700  1701     1 
 1700  1702     1 
 1700  1703     1 
 1704  1705     1 
 1704  1706     1 
 1706  1707     1 
 1706  1708     1 
 1708  1709     1 
 1710  1711     1 
 1710  1712     1 
 1710  1715     1 
 1712  1713     1 
 1712  1714     1 
 1715  1716     1 
 1716  1717     1 
 1716  1718     1 
 1716  1719     1 
 1719  1720     1 
 1720  1721     1 
 1720  1722     1 
 1720  1723     1 
 1723  1724     1 
 1723  1725     1 
 1723  1740     1 
 1725  1726     1 
 1726  1727     1 
 1726  1728     1 
 1726  1742     1 
 1728  1729     1 
 1728  1738     1 
 1729  1730     1 
 1729  1731     1 
 1731  1732     1 
 1731  1733     1 
 1733  1734     1 
 1733  1737     1 
 1734  1735     1 
 1734  1736     1 
 1737  1738     1 
 1738  1739     1 
 1740  1741     1 
 1740  1742     1 
 1740  1745     1 
 1742  1743     1 
 1742  1744     1 
 1745  1746     1 
 1746  1747     1 
 1746  1748     1 
 1746  1749     1 
 1749  1750     1 
 1750  1751     1 
 1750  1752     1 
 1750  1753     1 
 1753  1754     1 
 1753  1755     1 
 1753  1770     1 
 1755  1756     1 
 1756  1757     1 
 1756  1758     1 
 1756  1772     1 
 1758  1759     1 
 1758  1768     1 
 1759  1760     1 
 1759  1761     1 
 1761  1762     1 
 1761  1763     1 
 1763  1764     1 
 1763  1767     1 
 1764  1765     1 
 1764  1766     1 
 1767  1768     1 
 1768  1769     1 
 1770  1771     1 
 1770  1772     1 
 1770  1775     1 
 1772  1773     1 
 1772  1774     1 
 1775  1776     1 
 1776  1777     1 
 1776  1778     1 
 1776  1779     1 
 1779  1780     1 
 1780  1781     1 
 1780  1782     1 
 1780  1783     1 
 1783  1784     1 
 1783  1785     1 
 1783  1800     1 
 1785  1786     1 
 1786  1787     1 
 1786  1788     1 
 1786  1802     1 
 1788  1789     1 
 1788  1798     1 
 1789  1790     1 
 1789  1791     1 
 1791  1792     1 
 1791  1793     1 
 1793  1794     1 
 1793  1797     1 
 1794  1795     1 
 1794  1796     1 
 1797  1798     1 
 1798  1799     1 
 1800  1801     1 
 1800  1802     1 
 1800  1805     1 
 1802  1803     1 
 1802  1804     1 
 1805  1806     1 
 1806  1807     1 
 1806  1808     1 
 1806  1809     1 
 1809  1810     1 
 1810  1811     1 
 1810  1812     1 
 1810  1813     1 
 1813  1814     1 
 1813  1815     1 
 1813  1833     1 
 1815  1816     1 
 1816  1817     1 
 1816  1818     1 
 1816  1835     1 
 1818  1819     1 
 1818  1832     1 
 1819  1820     1 
 1819  1821     1 
 1821  1822     1 
 1822  1823     1 
 1822  1832     1 
 1823  1824     1 
 1823  1825     1 
 1825  1826     1 
 1825  1827     1 
 1827  1828     1 
 1827  1831     1 
 1828  1829     1 
 1828  1830     1 
 1831  1832     1 
 1833  1834     1 
 1833  1835     1 
 1833  1838     1 
 1835  1836     1 
 1835  1837     1 
 1838  1839     1 
 1839  1840     1 
 1839  1841     1 
 1839  1842     1 
 1842  1843     1 
 1843  1844     1 
 1843  1845     1 
 1843  1846     1 
 1846  1847     1 
 1846  1848     1 
 1846  1863     1 
 1848  1849     1 
 1849  1850     1 
 1849  1851     1 
 1849  1865     1 
 1851  1852     1 
 1851  1861     1 
 1852  1853     1 
 1852  1854     1 
 1854  1855     1 
 1854  1856     1 
 1856  1857     1 
 1856  1860     1 
 1857  1858     1 
 1857  1859     1 
 1860  1861     1 
 1861  1862     1 
 1863  1864     1 
 1863  1865     1 
 1863  1868     1 
 1865  1866     1 
 1865  1867     1 
 1868  1869     1 
 1869  1870     1 
 1869  1871     1 
 1869  1872     1 
 1872  1873     1 
 1873  1874     1 
 1873  1875     1 
 1873  1876     1 
 1876  1877     1 
 1876  1878     1 
 1876  1895     1 
 1878  1879     1 
 1879  1880     1 
 1879  1881     1 
 1879  1897     1 
 1881  1882     1 
 1881  1894     1 
 1882  1883     1 
 1882  1884     1 
 1884  1885     1 
 1885  1886     1 
 1885  1894     1 
 1886  1887     1 
 1886  1890     1 
 1887  1888     1 
 1887  1889     1 
 1890  1891     1 
 1891  1892     1 
 1891  1893     1 
 1893  1894     1 
 1895  1896     1 
 1895  1897     1 
 1895  1900     1 
 1897  1898     1 
 1897  1899     1 
 1900  1901     1 
 1901  1902     1 
 1901  1903     1 
 1901  1904     1 
 1904  1905     1 
 1905  1906     1 
 1905  1907     1 
 1905  1908     1 
 1908  1909     1 
 1908  1910     1 
 1908  1925     1 
 1910  1911     1 
 1911  1912     1 
 1911  1913     1 
 1911  1927     1 
 1913  1914     1 
 1913  1923     1 
 1914  1915     1 
 1914  1916     1 
 1916  1917     1 
 1916  1918     1 
 1918  1919     1 
 1918  1922     1 
 1919  1920     1 
 1919  1921     1 
 1922  1923     1 
 1923  1924     1 
 1925  1926     1 
 1925  1927     1 
 1925  1930     1 
 1927  1928     1 
 1927  1929     1 
 1930  1931     1 
 1931  1932     1 
 1931  1933     1 
 1931  1934     1 
 1934  1935     1 
 1935  1936     1 
 1935  1937     1 
 1935  1938     1 
 1938  1939     1 
 1938  1940     1 
 1938  1955     1 
 1940  1941     1 
 1941  1942     1 
 1941  1943     1 
 1941  1957     1 
 1943  1944     1 
 1943  1953     1 
 1944  1945     1 
 1944  1946     1 
 1946  1947     1 
 1946  1948     1 
 1948  1949     1 
 1948  1952     1 
 1949  1950     1 
 1949  1951     1 
 1952  1953     1 
 1953  1954     1 
 1955  1956     1 
 1955  1957     1 
 1955  1960     1 
 1957  1958     1 
 1957  1959     1 
 1960  1961     1 
 1961  1962     1 
 1961  1963     1 
 1961  1964     1 
 1964  1965     1 
 1965  1966     1 
 1965  1967     1 
 1965  1968     1 
 1968  1969     1 
 1968  1970     1 
 1968  1987     1 
 1970  1971     1 
 1971  1972     1 
 1971  1973     1 
 1971  1989     1 
 1973  1974     1 
 1973  1985     1 
 1974  1975     1 
 1974  1976     1 
 1976  1977     1 
 1976  1981     1 
 1977  1978     1 
 1977  1979     1 
 1977  1980     1 
 1981  1982     1 
 1981  1983     1 
 1983  1984     1 
 1983  1985     1 
 1985  1986     1 
 1987  1988     1 
 1987  1989     1 
 1987  1992     1 
 1989  1990     1 
 1989  1991     1 
 1992  1993     1 
 1993  1994     1 
 1993  1995     1 
 1993  1996     1 
 1996  1997     1 
 1997  1998     1 
 1997  1999     1 
 1997  2000     1 
 2000  2001     1 
 2000  2002     1 
 2000  2020     1 
 2002  2003     1 
 2003  2004     1 
 2003  2005     1 
 2003  2022     1 
 2005  2006     1 
 2005  2019     1 
 2006  2007     1 
 2006  2008     1 
 2008  2009     1 
 2009  2010     1 
 2009  2019     1 
 2010  2011     1 
 2010  2012     1 
 2012  2013     1 
 2012  2014     1 
 2014  2015     1 
 2014  2018     1 
 2015  2016     1 
 2015  2017     1 
 2018  2019     1 
 2020  2021     1 
 2020  2022     1 
 2020  2025     1 
 2022  2023     1 
 2022  2024     1 
 2025  2026     1 
 2026  2027     1 
 2026  2028     1 
 2026  2029     1 
 2029  2030     1 
 2030  2031     1 
 2030  2032     1 
 2030  2033     1 
 2033  2034     1 
 2033  2035     1 
 2033  2053     1 
 2035  2036     1 
 2036  2037     1 
 2036  2038     1 
 2036  2055     1 
 2038  2039     1 
 2038  2052     1 
 2039  2040     1 
 2039  2041     1 
 2041  2042     1 
 2042  2043     1 
 2042  2052     1 
 2043  2044     1 
 2043  2045     1 
 2045  2046     1 
 2045  2047     1 
 2047  2048     1 
 2047  2051     1 
 2048  2049     1 
 2048  2050     1 
 2051  2052     1 
 2053  2054     1 
 2053  2055     1 
 2053  2058     1 
 2055  2056     1 
 2055  2057     1 
 2058  2059     1 
 2059  2060     1 
 2059  2061     1 
 2059  2062     1 
 2062  2063     1 
 2063  2064     1 
 2063  2065     1 
 2063  2066     1 
 2066  2067     1 
 2066  2068     1 
 2066  2086     1 
 2068  2069     1 
 2069  2070     1 
 2069  2071     1 
 2069  2088     1 
 2071  2072     1 
 2071  2085     1 
 2072  2073     1 
 2072  2074     1 
 2074  2075     1 
 2075  2076     1 
 2075  2085     1 
 2076  2077     1 
 2076  2078     1 
 2078  2079     1 
 2078  2080     1 
 2080  2081     1 
 2080  2084     1 
 2081  2082     1 
 2081  2083     1 
 2084  2085     1 
 2086  2087     1 
 2086  2088     1 
 2086  2091     1 
 2088  2089     1 
 2088  2090     1 
 2091  2092     1 
 2092  2093     1 
 2092  2094     1 
 2092  2095     1 
 2095  2096     1 
 2096  2097     1 
 2096  2098     1 
 2096  2099     1 
 2099  2100     1 
 2099  2101     1 
 2099  2118     1 
 2101  2102     1 
 2102  2103     1 
 2102  2104     1 
 2102  2120     1 
 2104  2105     1 
 2104  2117     1 
 2105  2106     1 
 2105  2107     1 
 2107  2108     1 
 2108  2109     1 
 2108  2117     1 
 2109  2110     1 
 2109  2113     1 
 2110  2111     1 
 2110  2112     1 
 2113  2114     1 
 2114  2115     1 
 2114  2116     1 
 2116  2117     1 
 2118  2119     1 
 2118  2120     1 
 2118  2123     1 
 2120  2121     1 
 2120  2122     1 
 2123  2124     1 
 2124  2125     1 
 2124  2126     1 
 2124  2127     1 
 2127  2128     1 
 2128  2129     1 
 2128  2130     1 
 2128  2131     1 
 2131  2132     1 
 2131  2133     1 
 2131  2151     1 
 2133  2134     1 
 2134  2135     1 
 2134  2136     1 
 2134  2153     1 
 2136  2137     1 
 2136  2150     1 
 2137  2138     1 
 2137  2139     1 
 2139  2140     1 
 2140  2141     1 
 2140  2150     1 
 2141  2142     1 
 2141  2143     1 
 2143  2144     1 
 2143  2145     1 
 2145  2146     1 
 2145  2149     1 
 2146  2147     1 
 2146  2148     1 
 2149  2150     1 
 2151  2152     1 
 2151  2153     1 
 2151  2156     1 
 2153  2154     1 
 2153  2155     1 
 2156  2157     1 
 2157  2158     1 
 2157  2159     1 
 2157  2160     1 
 2160  2161     1 
 2161  2162     1 
 2161  2163     1 
 2161  2164     1 
 2164  2165     1 
 2164  2166     1 
 2164  2181     1 
 2166  2167     1 
 2167  2168     1 
 2167  2169     1 
 2167  2183     1 
 2169  2170     1 
 2169  2179     1 
 2170  2171     1 
 2170  2172     1 
 2172  2173     1 
 2172  2174     1 
 2174  2175     1 
 2174  2178     1 
 2175  2176     1 
 2175  2177     1 
 2178  2179     1 
 2179  2180     1 
 2181  2182     1 
 2181  2183     1 
 2181  2186     1 
 2183  2184     1 
 2183  2185     1 
 2186  2187     1 
 2187  2188     1 
 2187  2189     1 
 2187  2190     1 
 2190  2191     1 
 2191  2192     1 
 2191  2193     1 
 2191  2194     1 
 2194  2195     1 
 2194  2196     1 
 2194  2211     1 
 2196  2197     1 
 2197  2198     1 
 2197  2199     1 
 2197  2213     1 
 2199  2200     1 
 2199  2209     1 
 2200  2201     1 
 2200  2202     1 
 2202  2203     1 
 2202  2204     1 
 2204  2205     1 
 2204  2208     1 
 2205  2206     1 
 2205  2207     1 
 2208  2209     1 
 2209  2210     1 
 2211  2212     1 
 2211  2213     1 
 2211  2216     1 
 2213  2214     1 
 2213  2215     1 
 2216  2217     1 
 2217  2218     1 
 2217  2219     1 
 2217  2220     1 
 2220  2221     1 
 2221  2222     1 
 2221  2223     1 
 2221  2224     1 
 2224  2225     1 
 2224  2226     1 
 2224  2244     1 
 2226  2227     1 
 2227  2228     1 
 2227  2229     1 
 2227  2246     1 
 2229  2230     1 
 2229  2243     1 
 2230  2231     1 
 2230  2232     1 
 2232  2233     1 
 2233  2234     1 
 2233  2243     1 
 2234  2235     1 
 2234  2236     1 
 2236  2237     1 
 2236  2238     1 
 2238  2239     1 
 2238  2242     1 
 2239  2240     1 
 2239  2241     1 
 2242  2243     1 
 2244  2245     1 
 2244  2246     1 
 2244  2249     1 
 2246  2247     1 
 2246  2248     1 
 2249  2250     1 
 2250  2251     1 
 2250  2252     1 
 2250  2253     1 
 2253  2254     1 
 2254  2255     1 
 2254  2256     1 
 2254  2257     1 
 2257  2258     1 
 2257  2259     1 
 2257  2274     1 
 2259  2260     1 
 2260  2261     1 
 2260  2262     1 
 2260  2276     1 
 2262  2263     1 
 2262  2272     1 
 2263  2264     1 
 2263  2265     1 
 2265  2266     1 
 2265  2267     1 
 2267  2268     1 
 2267  2271     1 
 2268  2269     1 
 2268  2270     1 
 2271  2272     1 
 2272  2273     1 
 2274  2275     1 
 2274  2276     1 
 2274  2279     1 
 2276  2277     1 
 2276  2278     1 
 2279  2280     1 
 2280  2281     1 
 2280  2282     1 
 2280  2283     1 
 2283  2284     1 
 2284  2285     1 
 2284  2286     1 
 2284  2287     1 
 2287  2288     1 
 2287  2289     1 
 2287  2306     1 
 2289  2290     1 
 2290  2291     1 
 2290  2292     1 
 2290  2308     1 
 2292  2293     1 
 2292  2304     1 
 2293  2294     1 
 2293  2295     1 
 2295  2296     1 
 2295  2300     1 
 2296  2297     1 
 2296  2298     1 
 2296  2299     1 
 2300  2301     1 
 2300  2302     1 
 2302  2303     1 
 2302  2304     1 
 2304  2305     1 
 2306  2307     1 
 2306  2308     1 
 2306  2311     1 
 2308  2309     1 
 2308  2310     1 
 2311  2312     1 
 2312  2313     1 
 2312  2314     1 
 2312  2315     1 
 2315  2316     1 
 2316  2317     1 
 2316  2318     1 
 2316  2319     1 
 2319  2320     1 
 2319  2321     1 
 2319  2339     1 
 2321  2322     1 
 2322  2323     1 
 2322  2324     1 
 2322  2341     1 
 2324  2325     1 
 2324  2338     1 
 2325  2326     1 
 2325  2327     1 
 2327  2328     1 
 2328  2329     1 
 2328  2338     1 
 2329  2330     1 
 2329  2331     1 
 2331  2332     1 
 2331  2333     1 
 2333  2334     1 
 2333  2337     1 
 2334  2335     1 
 2334  2336     1 
 2337  2338     1 
 2339  2340     1 
 2339  2341     1 
 2339  2344     1 
 2341  2342     1 
 2341  2343     1 
 2344  2345     1 
 2345  2346     1 
 2345  2347     1 
 2345  2348     1 
 2348  2349     1 
 2349  2350     1 
 2349  2351     1 
 2349  2352     1 
 2352  2353     1 
 2352  2354     1 
 2352  2371     1 
 2354  2355     1 
 2355  2356     1 
 2355  2357     1 
 2355  2373     1 
 2357  2358     1 
 2357  2370     1 
 2358  2359     1 
 2358  2360     1 
 2360  2361     1 
 2361  2362     1 
 2361  2370     1 
 2362  2363     1 
 2362  2366     1 
 2363  2364     1 
 2363  2365     1 
 2366  2367     1 
 2367  2368     1 
 2367  2369     1 
 2369  2370     1 
 2371  2372     1 
 2371  2373     1 
 2371  2376     1 
 2373  2374     1 
 2373  2375     1 
 2376  2377     1 
 2377  2378     1 
 2377  2379     1 
 2377  2380     1 
 2380  2381     1 
 2381  2382     1 
 2381  2383     1 
 2381  2384     1 
 2384  2385     1 
 2384  2386     1 
 2384  2404     1 
 2386  2387     1 
 2387  2388     1 
 2387  2389     1 
 2387  2406     1 
 2389  2390     1 
 2389  2403     1 
 2390  2391     1 
 2390  2392     1 
 2392  2393     1 
 2393  2394     1 
 2393  2403     1 
 2394  2395     1 
 2394  2396     1 
 2396  2397     1 
 2396  2398     1 
 2398  2399     1 
 2398  2402     1 
 2399  2400     1 
 2399  2401     1 
 2402  2403     1 
 2404  2405     1 
 2404  2406     1 
 2404  2409     1 
 2406  2407     1 
 2406  2408     1 
 2409  2410     1 
 2410  2411     1 
 2410  2412     1 
 2410  2413     1 
 2413  2414     1 
 2414  2415     1 
 2414  2416     1 
 2414  2417     1 
 2417  2418     1 
 2417  2419     1 
 2417  2434     1 
 2419  2420     1 
 2420  2421     1 
 2420  2422     1 
 2420  2436     1 
 2422  2423     1 
 2422  2432     1 
 2423  2424     1 
 2423  2425     1 
 2425  2426     1 
 2425  2427     1 
 2427  2428     1 
 2427  2431     1 
 2428  2429     1 
 2428  2430     1 
 2431  2432     1 
 2432  2433     1 
 2434  2435     1 
 2434  2436     1 
 2434  2439     1 
 2436  2437     1 
 2436  2438     1 
 2439  2440     1 
 2440  2441     1 
 2440  2442     1 
 2440  2443     1 
 2443  2444     1 
 2444  2445     1 
 2444  2446     1 
 2444  2447     1 
 2447  2448     1 
 2447  2449     1 
 2447  2464     1 
 2449  2450     1 
 2450  2451     1 
 2450  2452     1 
 2450  2466     1 
 2452  2453     1 
 2452  2462     1 
 2453  2454     1 
 2453  2455     1 
 2455  2456     1 
 2455  2457     1 
 2457  2458     1 
 2457  2461     1 
 2458  2459     1 
 2458  2460     1 
 2461  2462     1 
 2462  2463     1 
 2464  2465     1 
 2464  2466     1 
 2464  2469     1 
 2466  2467     1 
 2466  2468     1 
 2469  2470     1 
 2470  2471     1 
 2470  2472     1 
 2470  2473     1 
 2473  2474     1 
 2474  2475     1 
 2474  2476     1 
 2474  2477     1 
 2477  2478     1 
 2477  2479     1 
 2477  2496     1 
 2479  2480     1 
 2480  2481     1 
 2480  2482     1 
 2480  2498     1 
 2482  2483     1 
 2482  2494     1 
 2483  2484     1 
 2483  2485     1 
 2485  2486     1 
 2485  2490     1 
 2486  2487     1 
 2486  2488     1 
 2486  2489     1 
 2490  2491     1 
 2490  2492     1 
 2492  2493     1 
 2492  2494     1 
 2494  2495     1 
 2496  2497     1 
 2496  2498     1 
 2496  2501     1 
 2498  2499     1 
 2498  2500     1 
 2501  2502     1 
 2502  2503     1 
 2502  2504     1 
 2502  2505     1 
 2505  2506     1 
 2506  2507     1 
 2506  2508     1 
 2506  2509     1 
 2509  2510     1 
 2509  2511     1 
 2509  2526     1 
 2511  2512     1 
 2512  2513     1 
 2512  2514     1 
 2512  2528     1 
 2514  2515     1 
 2514  2524     1 
 2515  2516     1 
 2515  2517     1 
 2517  2518     1 
 2517  2519     1 
 2519  2520     1 
 2519  2523     1 
 2520  2521     1 
 2520  2522     1 
 2523  2524     1 
 2524  2525     1 
 2526  2527     1 
 2526  2528     1 
 2526  2531     1 
 2528  2529     1 
 2528  2530     1 
 2531  2532     1 
 2532  2533     1 
 2532  2534     1 
 2532  2535     1 
 2535  2536     1 
 2536  2537     1 
 2536  2538     1 
 2536  2539     1 
 2539  2540     1 
 2539  2541     1 
 2539  2558     1 
 2541  2542     1 
 2542  2543     1 
 2542  2544     1 
 2542  2560     1 
 2544  2545     1 
 2544  2556     1 
 2545  2546     1 
 2545  2547     1 
 2547  2548     1 
 2547  2552     1 
 2548  2549     1 
 2548  2550     1 
 2548  2551     1 
 2552  2553     1 
 2552  2554     1 
 2554  2555     1 
 2554  2556     1 
 2556  2557     1 
 2558  2559     1 
 2558  2560     1 
 2558  2563     1 
 2560  2561     1 
 2560  2562     1 
 2563  2564     1 
 2564  2565     1 
 2564  2566     1 
 2564  2567     1 
 2567  2568     1 
 2568  2569     1 
 2568  2570     1 
 2568  2571     1 
 2571  2572     1 
 2571  2573     1 
 2571  2591     1 
 2573  2574     1 
 2574  2575     1 
 2574  2576     1 
 2574  2593     1 
 2576  2577     1 
 2576  2590     1 
 2577  2578     1 
 2577  2579     1 
 2579  2580     1 
 2580  2581     1 
 2580  2590     1 
 2581  2582     1 
 2581  2583     1 
 2583  2584     1 
 2583  2585     1 
 2585  2586     1 
 2585  2589     1 
 2586  2587     1 
 2586  2588     1 
 2589  2590     1 
 2591  2592     1 
 2591  2593     1 
 2591  2596     1 
 2593  2594     1 
 2593  2595     1 
 2596  2597     1 
 2597  2598     1 
 2597  2599     1 
 2597  2600     1 
 2600  2601     1 
 2601  2602     1 
 2601  2603     1 
 2601  2604     1 
 2604  2605     1 
 2604  2606     1 
 2604  2624     1 
 2606  2607     1 
 2607  2608     1 
 2607  2609     1 
 2607  2626     1 
 2609  2610     1 
 2609  2623     1 
 2610  2611     1 
 2610  2612     1 
 2612  2613     1 
 2613  2614     1 
 2613  2623     1 
 2614  2615     1 
 2614  2616     1 
 2616  2617     1 
 2616  2618     1 
 2618  2619     1 
 2618  2622     1 
 2619  2620     1 
 2619  2621     1 
 2622  2623     1 
 2624  2625     1 
 2624  2626     1 
 2624  2629     1 
 2626  2627     1 
 2626  2628     1 
 2629  2630     1 
 2630  2631     1 
 2630  2632     1 
 2630  2633     1 
 2633  2634     1 
 2634  2635     1 
 2634  2636     1 
 2634  2637     1 
 2637  2638     1 
 2637  2639     1 
 2637  2654     1 
 2639  2640     1 
 2640  2641     1 
 2640  2642     1 
 2640  2656     1 
 2642  2643     1 
 2642  2652     1 
 2643  2644     1 
 2643  2645     1 
 2645  2646     1 
 2645  2647     1 
 2647  2648     1 
 2647  2651     1 
 2648  2649     1 
 2648  2650     1 
 2651  2652     1 
 2652  2653     1 
 2654  2655     1 
 2654  2656     1 
 2654  2659     1 
 2656  2657     1 
 2656  2658     1 
 2659  2660     1 
 2660  2661     1 
 2660  2662     1 
 2660  2663     1 
 2663  2664     1 
 2664  2665     1 
 2664  2666     1 
 2664  2667     1 
 2667  2668     1 
 2667  2669     1 
 2667  2684     1 
 2669  2670     1 
 2670  2671     1 
 2670  2672     1 
 2670  2686     1 
 2672  2673     1 
 2672  2682     1 
 2673  2674     1 
 2673  2675     1 
 2675  2676     1 
 2675  2677     1 
 2677  2678     1 
 2677  2681     1 
 2678  2679     1 
 2678  2680     1 
 2681  2682     1 
 2682  2683     1 
 2684  2685     1 
 2684  2686     1 
 2684  2689     1 
 2686  2687     1 
 2686  2688     1 
 2689  2690     1 
 2690  2691     1 
 2690  2692     1 
 2690  2693     1 
 2693  2694     1 
 2694  2695     1 
 2694  2696     1 
 2694  2697     1 
 2697  2698     1 
 2697  2699     1 
 2697  2714     1 
 2699  2700     1 
 2700  2701     1 
 2700  2702     1 
 2700  2716     1 
 2702  2703     1 
 2702  2712     1 
 2703  2704     1 
 2703  2705     1 
 2705  2706     1 
 2705  2707     1 
 2707  2708     1 
 2707  2711     1 
 2708  2709     1 
 2708  2710     1 
 2711  2712     1 
 2712  2713     1 
 2714  2715     1 
 2714  2716     1 
 2714  2719     1 
 2716  2717     1 
 2716  2718     1 
 2719  2720     1 
 2720  2721     1 
 2720  2722     1 
 2720  2723     1 
 2723  2724     1 
 2724  2725     1 
 2724  2726     1 
 2724  2727     1 
 2727  2728     1 
 2727  2729     1 
 2727  2744     1 
 2729  2730     1 
 2730  2731     1 
 2730  2732     1 
 2730  2746     1 
 2732  2733     1 
 2732  2742     1 
 2733  2734     1 
 2733  2735     1 
 2735  2736     1 
 2735  2737     1 
 2737  2738     1 
 2737  2741     1 
 2738  2739     1 
 2738  2740     1 
 2741  2742     1 
 2742  2743     1 
 2744  2745     1 
 2744  2746     1 
 2744  2749     1 
 2746  2747     1 
 2746  2748     1 
 2749  2750     1 
 2750  2751     1 
 2750  2752     1 
 2750  2753     1 
 2753  2754     1 
 2754  2755     1 
 2754  2756     1 
 2754  2757     1 
 2757  2758     1 
 2757  2759     1 
 2757  2777     1 
 2759  2760     1 
 2760  2761     1 
 2760  2762     1 
 2760  2779     1 
 2762  2763     1 
 2762  2776     1 
 2763  2764     1 
 2763  2765     1 
 2765  2766     1 
 2766  2767     1 
 2766  2776     1 
 2767  2768     1 
 2767  2769     1 
 2769  2770     1 
 2769  2771     1 
 2771  2772     1 
 2771  2775     1 
 2772  2773     1 
 2772  2774     1 
 2775  2776     1 
 2777  2778     1 
 2777  2779     1 
 2777  2782     1 
 2779  2780     1 
 2779  2781     1 
 2782  2783     1 
 2783  2784     1 
 2783  2785     1 
 2783  2786     1 
 2786  2787     1 
 2787  2788     1 
 2787  2789     1 
 2787  2790     1 
 2790  2791     1 
 2790  2792     1 
 2790  2807     1 
 2792  2793     1 
 2793  2794     1 
 2793  2795     1 
 2793  2809     1 
 2795  2796     1 
 2795  2805     1 
 2796  2797     1 
 2796  2798     1 
 2798  2799     1 
 2798  2800     1 
 2800  2801     1 
 2800  2804     1 
 2801  2802     1 
 2801  2803     1 
 2804  2805     1 
 2805  2806     1 
 2807  2808     1 
 2807  2809     1 
 2807  2812     1 
 2809  2810     1 
 2809  2811     1 
 2812  2813     1 
 2813  2814     1 
 2813  2815     1 
 2813  2816     1 
 2816  2817     1 
 2817  2818     1 
 2817  2819     1 
 2817  2820     1 
 2820  2821     1 
 2820  2822     1 
 2820  2837     1 
 2822  2823     1 
 2823  2824     1 
 2823  2825     1 
 2823  2839     1 
 2825  2826     1 
 2825  2835     1 
 2826  2827     1 
 2826  2828     1 
 2828  2829     1 
 2828  2830     1 
 2830  2831     1 
 2830  2834     1 
 2831  2832     1 
 2831  2833     1 
 2834  2835     1 
 2835  2836     1 
 2837  2838     1 
 2837  2839     1 
 2837  2842     1 
 2839  2840     1 
 2839  2841     1 
 2842  2843     1 
 2843  2844     1 
 2843  2845     1 
 2843  2846     1 
 2846  2847     1 
 2847  2848     1 
 2847  2849     1 
 2847  2850     1 
 2850  2851     1 
 2850  2852     1 
 2850  2870     1 
 2852  2853     1 
 2853  2854     1 
 2853  2855     1 
 2853  2872     1 
 2855  2856     1 
 2855  2869     1 
 2856  2857     1 
 2856  2858     1 
 2858  2859     1 
 2859  2860     1 
 2859  2869     1 
 2860  2861     1 
 2860  2862     1 
 2862  2863     1 
 2862  2864     1 
 2864  2865     1 
 2864  2868     1 
 2865  2866     1 
 2865  2867     1 
 2868  2869     1 
 2870  2871     1 
 2870  2872     1 
 2870  2875     1 
 2872  2873     1 
 2872  2874     1 
 2875  2876     1 
 2876  2877     1 
 2876  2878     1 
 2876  2879     1 
 2879  2880     1 
 2880  2881     1 
 2880  2882     1 
 2880  2883     1 
 2883  2884     1 
 2883  2885     1 
 2883  2900     1 
 2885  2886     1 
 2886  2887     1 
 2886  2888     1 
 2886  2902     1 
 2888  2889     1 
 2888  2898     1 
 2889  2890     1 
 2889  2891     1 
 2891  2892     1 
 2891  2893     1 
 2893  2894     1 
 2893  2897     1 
 2894  2895     1 
 2894  2896     1 
 2897  2898     1 
 2898  2899     1 
 2900  2901     1 
 2900  2902     1 
 2900  2905     1 
 2902  2903     1 
 2902  2904     1 
 2905  2906     1 
 2906  2907     1 
 2906  2908     1 
 2906  2909     1 
 2909  2910     1 
 2910  2911     1 
 2910  2912     1 
 2910  2913     1 
 2913  2914     1 
 2913  2915     1 
 2913  2930     1 
 2915  2916     1 
 2916  2917     1 
 2916  2918     1 
 2916  2932     1 
 2918  2919     1 
 2918  2928     1 
 2919  2920     1 
 2919  2921     1 
 2921  2922     1 
 2921  2923     1 
 2923  2924     1 
 2923  2927     1 
 2924  2925     1 
 2924  2926     1 
 2927  2928     1 
 2928  2929     1 
 2930  2931     1 
 2930  2932     1 
 2930  2935     1 
 2932  2933     1 
 2932  2934     1 
 2935  2936     1 
 2936  2937     1 
 2936  2938     1 
 2936  2939     1 
 2939  2940     1 
 2940  2941     1 
 2940  2942     1 
 2940  2943     1 
 2943  2944     1 
 2943  2945     1 
 2943  2963     1 
 2945  2946     1 
 2946  2947     1 
 2946  2948     1 
 2946  2965     1 
 2948  2949     1 
 2948  2962     1 
 2949  2950     1 
 2949  2951     1 
 2951  2952     1 
 2952  2953     1 
 2952  2962     1 
 2953  2954     1 
 2953  2955     1 
 2955  2956     1 
 2955  2957     1 
 2957  2958     1 
 2957  2961     1 
 2958  2959     1 
 2958  2960     1 
 2961  2962     1 
 2963  2964     1 
 2963  2965     1 
 2963  2968     1 
 2965  2966     1 
 2965  2967     1 
 2968  2969     1 
 2969  2970     1 
 2969  2971     1 
 2969  2972     1 
 2972  2973     1 
 2973  2974     1 
 2973  2975     1 
 2973  2976     1 
 2976  2977     1 
 2976  2978     1 
 2976  2993     1 
 2978  2979     1 
 2979  2980     1 
 2979  2981     1 
 2979  2995     1 
 2981  2982     1 
 2981  2991     1 
 2982  2983     1 
 2982  2984     1 
 2984  2985     1 
 2984  2986     1 
 2986  2987     1 
 2986  2990     1 
 2987  2988     1 
 2987  2989     1 
 2990  2991     1 
 2991  2992     1 
 2993  2994     1 
 2993  2995     1 
 2993  2998     1 
 2995  2996     1 
 2995  2997     1 
 2998  2999     1 
 2999  3000     1 
 2999  3001     1 
 2999  3002     1 
 3002  3003     1 
 3003  3004     1 
 3003  3005     1 
 3003  3006     1 
 3006  3007     1 
 3006  3008     1 
 3006  3023     1 
 3008  3009     1 
 3009  3010     1 
 3009  3011     1 
 3009  3025     1 
 3011  3012     1 
 3011  3021     1 
 3012  3013     1 
 3012  3014     1 
 3014  3015     1 
 3014  3016     1 
 3016  3017     1 
 3016  3020     1 
 3017  3018     1 
 3017  3019     1 
 3020  3021     1 
 3021  3022     1 
 3023  3024     1 
 3023  3025     1 
 3023  3028     1 
 3025  3026     1 
 3025  3027     1 
 3028  3029     1 
 3029  3030     1 
 3029  3031     1 
 3029  3032     1 
 3032  3033     1 
 3033  3034     1 
 3033  3035     1 
 3033  3036     1 
 3036  3037     1 
 3036  3038     1 
 3036  3055     1 
 3038  3039     1 
 3039  3040     1 
 3039  3041     1 
 3039  3057     1 
 3041  3042     1 
 3041  3053     1 
 3042  3043     1 
 3042  3044     1 
 3044  3045     1 
 3044  3049     1 
 3045  3046     1 
 3045  3047     1 
 3045  3048     1 
 3049  3050     1 
 3049  3051     1 
 3051  3052     1 
 3051  3053     1 
 3053  3054     1 
 3055  3056     1 
 3055  3057     1 
 3055  3060     1 
 3057  3058     1 
 3057  3059     1 
 3060  3061     1 
 3061  3062     1 
 3061  3063     1 
 3061  3064     1 
 3064  3065     1 
 3065  3066     1 
 3065  3067     1 
 3065  3068     1 
 3068  3069     1 
 3068  3070     1 
 3068  3087     1 
 3070  3071     1 
 3071  3072     1 
 3071  3073     1 
 3071  3089     1 
 3073  3074     1 
 3073  3085     1 
 3074  3075     1 
 3074  3076     1 
 3076  3077     1 
 3076  3081     1 
 3077  3078     1 
 3077  3079     1 
 3077  3080     1 
 3081  3082     1 
 3081  3083     1 
 3083  3084     1 
 3083  3085     1 
 3085  3086     1 
 3087  3088     1 
 3087  3089     1 
 3087  3092     1 
 3089  3090     1 
 3089  3091     1 
 3092  3093     1 
 3093  3094     1 
 3093  3095     1 
 3093  3096     1 
 3096  3097     1 
 3097  3098     1 
 3097  3099     1 
 3097  3100     1 
 3100  3101     1 
 3100  3102     1 
 3100  3117     1 
 3102  3103     1 
 3103  3104     1 
 3103  3105     1 
 3103  3119     1 
 3105  3106     1 
 3105  3115     1 
 3106  3107     1 
 3106  3108     1 
 3108  3109     1 
 3108  3110     1 
 3110  3111     1 
 3110  3114     1 
 3111  3112     1 
 3111  3113     1 
 3114  3115     1 
 3115  3116     1 
 3117  3118     1 
 3117  3119     1 
 3117  3122     1 
 3119  3120     1 
 3119  3121     1 
 3122  3123     1 
 3123  3124     1 
 3123  3125     1 
 3123  3126     1 
 3126  3127     1 
 3127  3128     1 
 3127  3129     1 
 3127  3130     1 
 3130  3131     1 
 3130  3132     1 
 3130  3149     1 
 3132  3133     1 
 3133  3134     1 
 3133  3135     1 
 3133  3151     1 
 3135  3136     1 
 3135  3148     1 
 3136  3137     1 
 3136  3138     1 
 3138  3139     1 
 3139  3140     1 
 3139  3148     1 
 3140  3141     1 
 3140  3144     1 
 3141  3142     1 
 3141  3143     1 
 3144  3145     1 
 3145  3146     1 
 3145  3147     1 
 3147  3148     1 
 3149  3150     1 
 3149  3151     1 
 3149  3154     1 
 3151  3152     1 
 3151  3153     1 
 3154  3155     1 
 3155  3156     1 
 3155  3157     1 
 3155  3158     1 
 3158  3159     1 
 3159  3160     1 
 3159  3161     1 
 3159  3162     1 
 3162  3163     1 
 3162  3164     1 
 3162  3182     1 
 3164  3165     1 
 3165  3166     1 
 3165  3167     1 
 3165  3184     1 
 3167  3168     1 
 3167  3181     1 
 3168  3169     1 
 3168  3170     1 
 3170  3171     1 
 3171  3172     1 
 3171  3181     1 
 3172  3173     1 
 3172  3174     1 
 3174  3175     1 
 3174  3176     1 
 3176  3177     1 
 3176  3180     1 
 3177  3178     1 
 3177  3179     1 
 3180  3181     1 
 3182  3183     1 
 3182  3184     1 
 3182  3187     1 
 3184  3185     1 
 3184  3186     1 
 3187  3188     1 
 3188  3189     1 
 3188  3190     1 
 3188  3191     1 
 3191  3192     1 
 3192  3193     1 
 3192  3194     1 
 3192  3195     1 
 3195  3196     1 
 3195  3197     1 
 3195  3214     1 
 3197  3198     1 
 3198  3199     1 
 3198  3200     1 
 3198  3216     1 
 3200  3201     1 
 3200  3212     1 
 3201  3202     1 
 3201  3203     1 
 3203  3204     1 
 3203  3208     1 
 3204  3205     1 
 3204  3206     1 
 3204  3207     1 
 3208  3209     1 
 3208  3210     1 
 3210  3211     1 
 3210  3212     1 
 3212  3213     1 
 3214  3215     1 
 3214  3216     1 
 3214  3219     1 
 3216  3217     1 
 3216  3218     1 
 3219  3220     1 
 3220  3221     1 
 3220  3222     1 
 3220  3223     1 
 3223  3224     1 
 3224  3225     1 
 3224  3226     1 
 3224  3227     1 
 3227  3228     1 
 3227  3229     1 
 3227  3247     1 
 3229  3230     1 
 3230  3231     1 
 3230  3232     1 
 3230  3249     1 
 3232  3233     1 
 3232  3246     1 
 3233  3234     1 
 3233  3235     1 
 3235  3236     1 
 3236  3237     1 
 3236  3246     1 
 3237  3238     1 
 3237  3239     1 
 3239  3240     1 
 3239  3241     1 
 3241  3242     1 
 3241  3245     1 
 3242  3243     1 
 3242  3244     1 
 3245  3246     1 
 3247  3248     1 
 3247  3249     1 
 3247  3252     1 
 3249  3250     1 
 3249  3251     1 
 3252  3253     1 
 3253  3254     1 
 3253  3255     1 
 3253  3256     1 
 3256  3257     1 
 3257  3258     1 
 3257  3259     1 
 3257  3260     1 
 3260  3261     1 
 3260  3262     1 
 3260  3277     1 
 3262  3263     1 
 3263  3264     1 
 3263  3265     1 
 3263  3279     1 
 3265  3266     1 
 3265  3275     1 
 3266  3267     1 
 3266  3268     1 
 3268  3269     1 
 3268  3270     1 
 3270  3271     1 
 3270  3274     1 
 3271  3272     1 
 3271  3273     1 
 3274  3275     1 
 3275  3276     1 
 3277  3278     1 
 3277  3279     1 
 3277  3282     1 
 3279  3280     1 
 3279  3281     1 
 3282  3283     1 
 3283  3284     1 
 3283  3285     1 
 3283  3286     1 
 3286  3287     1 
 3287  3288     1 
 3287  3289     1 
 3287  3290     1 
 3290  3291     1 
 3290  3292     1 
 3290  3307     1 
 3292  3293     1 
 3293  3294     1 
 3293  3295     1 
 3293  3309     1 
 3295  3296     1 
 3295  3305     1 
 3296  3297     1 
 3296  3298     1 
 3298  3299     1 
 3298  3300     1 
 3300  3301     1 
 3300  3304     1 
 3301  3302     1 
 3301  3303     1 
 3304  3305     1 
 3305  3306     1 
 3307  3308     1 
 3307  3309     1 
 3307  3312     1 
 3309  3310     1 
 3309  3311     1 
 3312  3313     1 
 3313  3314     1 
 3313  3315     1 
 3313  3316     1 
 3316  3317     1 
 3317  3318     1 
 3317  3319     1 
 3317  3320     1 
 3320  3321     1 
 3320  3322     1 
 3320  3339     1 
 3322  3323     1 
 3323  3324     1 
 3323  3325     1 
 3323  3341     1 
 3325  3326     1 
 3325  3337     1 
 3326  3327     1 
 3326  3328     1 
 3328  3329     1 
 3328  3333     1 
 3329  3330     1 
 3329  3331     1 
 3329  3332     1 
 3333  3334     1 
 3333  3335     1 
 3335  3336     1 
 3335  3337     1 
 3337  3338     1 
 3339  3340     1 
 3339  3341     1 
 3339  3344     1 
 3341  3342     1 
 3341  3343     1 
 3344  3345     1 
 3345  3346     1 
 3345  3347     1 
 3345  3348     1 
 3348  3349     1 
 3349  3350     1 
 3349  3351     1 
 3349  3352     1 
 3352  3353     1 
 3352  3354     1 
 3352  3372     1 
 3354  3355     1 
 3355  3356     1 
 3355  3357     1 
 3355  3374     1 
 3357  3358     1 
 3357  3371     1 
 3358  3359     1 
 3358  3360     1 
 3360  3361     1 
 3361  3362     1 
 3361  3371     1 
 3362  3363     1 
 3362  3364     1 
 3364  3365     1 
 3364  3366     1 
 3366  3367     1 
 3366  3370     1 
 3367  3368     1 
 3367  3369     1 
 3370  3371     1 
 3372  3373     1 
 3372  3374     1 
 3372  3377     1 
 3374  3375     1 
 3374  3376     1 
 3377  3378     1 
 3378  3379     1 
 3378  3380     1 
 3378  3381     1 
 3381  3382     1 
 3382  3383     1 
 3382  3384     1 
 3382  3385     1 
 3385  3386     1 
 3385  3387     1 
 3385  3402     1 
 3387  3388     1 
 3388  3389     1 
 3388  3390     1 
 3388  3404     1 
 3390  3391     1 
 3390  3400     1 
 3391  3392     1 
 3391  3393     1 
 3393  3394     1 
 3393  3395     1 
 3395  3396     1 
 3395  3399     1 
 3396  3397     1 
 3396  3398     1 
 3399  3400     1 
 3400  3401     1 
 3402  3403     1 
 3402  3404     1 
 3402  3407     1 
 3404  3405     1 
 3404  3406     1 
 3407  3408     1 
 3408  3409     1 
 3408  3410     1 
 3408  3411     1 
 3411  3412     1 
 3412  3413     1 
 3412  3414     1 
 3412  3415     1 
 3415  3416     1 
 3415  3417     1 
 3415  3435     1 
 3417  3418     1 
 3418  3419     1 
 3418  3420     1 
 3418  3437     1 
 3420  3421     1 
 3420  3434     1 
 3421  3422     1 
 3421  3423     1 
 3423  3424     1 
 3424  3425     1 
 3424  3434     1 
 3425  3426     1 
 3425  3427     1 
 3427  3428     1 
 3427  3429     1 
 3429  3430     1 
 3429  3433     1 
 3430  3431     1 
 3430  3432     1 
 3433  3434     1 
 3435  3436     1 
 3435  3437     1 
 3435  3440     1 
 3437  3438     1 
 3437  3439     1 
 3440  3441     1 
 3441  3442     1 
 3441  3443     1 
 3441  3444     1 
 3444  3445     1 
 3445  3446     1 
 3445  3447     1 
 3445  3448     1 
 3448  3449     1 
 3448  3450     1 
 3448  3465     1 
 3450  3451     1 
 3451  3452     1 
 3451  3453     1 
 3451  3467     1 
 3453  3454     1 
 3453  3463     1 
 3454  3455     1 
 3454  3456     1 
 3456  3457     1 
 3456  3458     1 
 3458  3459     1 
 3458  3462     1 
 3459  3460     1 
 3459  3461     1 
 3462  3463     1 
 3463  3464     1 
 3465  3466     1 
 3465  3467     1 
 3465  3470     1 
 3467  3468     1 
 3467  3469     1 
 3470  3471     1 
 3471  3472     1 
 3471  3473     1 
 3471  3474     1 
 3474  3475     1 
 3475  3476     1 
 3475  3477     1 
 3475  3478     1 
 3478  3479     1 
 3478  3480     1 
 3478  3495     1 
 3480  3481     1 
 3481  3482     1 
 3481  3483     1 
 3481  3497     1 
 3483  3484     1 
 3483  3493     1 
 3484  3485     1 
 3484  3486     1 
 3486  3487     1 
 3486  3488     1 
 3488  3489     1 
 3488  3492     1 
 3489  3490     1 
 3489  3491     1 
 3492  3493     1 
 3493  3494     1 
 3495  3496     1 
 3495  3497     1 
 3495  3500     1 
 3497  3498     1 
 3497  3499     1 
 3500  3501     1 
 3501  3502     1 
 3501  3503     1 
 3501  3504     1 
 3504  3505     1 
 3505  3506     1 
 3505  3507     1 
 3505  3508     1 
 3508  3509     1 
 3508  3510     1 
 3508  3528     1 
 3510  3511     1 
 3511  3512     1 
 3511  3513     1 
 3511  3530     1 
 3513  3514     1 
 3513  3527     1 
 3514  3515     1 
 3514  3516     1 
 3516  3517     1 
 3517  3518     1 
 3517  3527     1 
 3518  3519     1 
 3518  3520     1 
 3520  3521     1 
 3520  3522     1 
 3522  3523     1 
 3522  3526     1 
 3523  3524     1 
 3523  3525     1 
 3526  3527     1 
 3528  3529     1 
 3528  3530     1 
 3528  3533     1 
 3530  3531     1 
 3530  3532     1 
 3533  3534     1 
 3534  3535     1 
 3534  3536     1 
 3534  3537     1 
 3537  3538     1 
 3538  3539     1 
 3538  3540     1 
 3538  3541     1 
 3541  3542     1 
 3541  3543     1 
 3541  3558     1 
 3543  3544     1 
 3544  3545     1 
 3544  3546     1 
 3544  3560     1 
 3546  3547     1 
 3546  3556     1 
 3547  3548     1 
 3547  3549     1 
 3549  3550     1 
 3549  3551     1 
 3551  3552     1 
 3551  3555     1 
 3552  3553     1 
 3552  3554     1 
 3555  3556     1 
 3556  3557     1 
 3558  3559     1 
 3558  3560     1 
 3558  3563     1 
 3560  3561     1 
 3560  3562     1 
 3563  3564     1 
 3564  3565     1 
 3564  3566     1 
 3564  3567     1 
 3567  3568     1 
 3568  3569     1 
 3568  3570     1 
 3568  3571     1 
 3571  3572     1 
 3571  3573     1 
 3571  3591     1 
 3573  3574     1 
 3574  3575     1 
 3574  3576     1 
 3574  3593     1 
 3576  3577     1 
 3576  3590     1 
 3577  3578     1 
 3577  3579     1 
 3579  3580     1 
 3580  3581     1 
 3580  3590     1 
 3581  3582     1 
 3581  3583     1 
 3583  3584     1 
 3583  3585     1 
 3585  3586     1 
 3585  3589     1 
 3586  3587     1 
 3586  3588     1 
 3589  3590     1 
 3591  3592     1 
 3591  3593     1 
 3591  3596     1 
 3593  3594     1 
 3593  3595     1 
 3596  3597     1 
 3597  3598     1 
 3597  3599     1 
 3597  3600     1 
 3600  3601     1 
 3601  3602     1 
 3601  3603     1 
 3601  3604     1 
 3604  3605     1 
 3604  3606     1 
 3604  3621     1 
 3606  3607     1 
 3607  3608     1 
 3607  3609     1 
 3607  3623     1 
 3609  3610     1 
 3609  3619     1 
 3610  3611     1 
 3610  3612     1 
 3612  3613     1 
 3612  3614     1 
 3614  3615     1 
 3614  3618     1 
 3615  3616     1 
 3615  3617     1 
 3618  3619     1 
 3619  3620     1 
 3621  3622     1 
 3621  3623     1 
 3621  3626     1 
 3623  3624     1 
 3623  3625     1 
 3626  3627     1 
 3627  3628     1 
 3627  3629     1 
 3627  3630     1 
 3630  3631     1 
 3631  3632     1 
 3631  3633     1 
 3631  3634     1 
 3634  3635     1 
 3634  3636     1 
 3634  3653     1 
 3636  3637     1 
 3637  3638     1 
 3637  3639     1 
 3637  3655     1 
 3639  3640     1 
 3639  3651     1 
 3640  3641     1 
 3640  3642     1 
 3642  3643     1 
 3642  3647     1 
 3643  3644     1 
 3643  3645     1 
 3643  3646     1 
 3647  3648     1 
 3647  3649     1 
 3649  3650     1 
 3649  3651     1 
 3651  3652     1 
 3653  3654     1 
 3653  3655     1 
 3653  3658     1 
 3655  3656     1 
 3655  3657     1 
 3658  3659     1 
 3659  3660     1 
 3659  3661     1 
 3659  3662     1 
 3662  3663     1 
 3663  3664     1 
 3663  3665     1 
 3663  3666     1 
 3666  3667     1 
 3666  3668     1 
 3666  3683     1 
 3668  3669     1 
 3669  3670     1 
 3669  3671     1 
 3669  3685     1 
 3671  3672     1 
 3671  3681     1 
 3672  3673     1 
 3672  3674     1 
 3674  3675     1 
 3674  3676     1 
 3676  3677     1 
 3676  3680     1 
 3677  3678     1 
 3677  3679     1 
 3680  3681     1 
 3681  3682     1 
 3683  3684     1 
 3683  3685     1 
 3683  3688     1 
 3685  3686     1 
 3685  3687     1 
 3688  3689     1 
 3689  3690     1 
 3689  3691     1 
 3689  3692     1 
 3692  3693     1 
 3693  3694     1 
 3693  3695     1 
 3693  3696     1 
 3696  3697     1 
 3696  3698     1 
 3696  3716     1 
 3698  3699     1 
 3699  3700     1 
 3699  3701     1 
 3699  3718     1 
 3701  3702     1 
 3701  3715     1 
 3702  3703     1 
 3702  3704     1 
 3704  3705     1 
 3705  3706     1 
 3705  3715     1 
 3706  3707     1 
 3706  3708     1 
 3708  3709     1 
 3708  3710     1 
 3710  3711     1 
 3710  3714     1 
 3711  3712     1 
 3711  3713     1 
 3714  3715     1 
 3716  3717     1 
 3716  3718     1 
 3716  3721     1 
 3718  3719     1 
 3718  3720     1 
 3721  3722     1 
 3722  3723     1 
 3722  3724     1 
 3722  3725     1 
 3725  3726     1 
 3726  3727     1 
 3726  3728     1 
 3726  3729     1 
 3729  3730     1 
 3729  3731     1 
 3729  3746     1 
 3731  3732     1 
 3732  3733     1 
 3732  3734     1 
 3732  3748     1 
 3734  3735     1 
 3734  3744     1 
 3735  3736     1 
 3735  3737     1 
 3737  3738     1 
 3737  3739     1 
 3739  3740     1 
 3739  3743     1 
 3740  3741     1 
 3740  3742     1 
 3743  3744     1 
 3744  3745     1 
 3746  3747     1 
 3746  3748     1 
 3746  3751     1 
 3748  3749     1 
 3748  3750     1 
 3751  3752     1 
 3752  3753     1 
 3752  3754     1 
 3752  3755     1 
 3755  3756     1 
 3756  3757     1 
 3756  3758     1 
 3756  3759     1 
 3759  3760     1 
 3759  3761     1 
 3759  3778     1 
 3761  3762     1 
 3762  3763     1 
 3762  3764     1 
 3762  3780     1 
 3764  3765     1 
 3764  3776     1 
 3765  3766     1 
 3765  3767     1 
 3767  3768     1 
 3767  3772     1 
 3768  3769     1 
 3768  3770     1 
 3768  3771     1 
 3772  3773     1 
 3772  3774     1 
 3774  3775     1 
 3774  3776     1 
 3776  3777     1 
 3778  3779     1 
 3778  3780     1 
 3778  3783     1 
 3780  3781     1 
 3780  3782     1 
 3783  3784     1 
 3784  3785     1 
 3784  3786     1 
 3784  3787     1 
 3787  3788     1 
 3788  3789     1 
 3788  3790     1 
 3788  3791     1 
 3791  3792     1 
 3791  3793     1 
 3791  3808     1 
 3793  3794     1 
 3794  3795     1 
 3794  3796     1 
 3794  3810     1 
 3796  3797     1 
 3796  3806     1 
 3797  3798     1 
 3797  3799     1 
 3799  3800     1 
 3799  3801     1 
 3801  3802     1 
 3801  3805     1 
 3802  3803     1 
 3802  3804     1 
 3805  3806     1 
 3806  3807     1 
 3808  3809     1 
 3808  3810     1 
 3808  3813     1 
 3810  3811     1 
 3810  3812     1 
 3813  3814     1 
 3814  3815     1 
 3814  3816     1 
 3814  3817     1 
 3817  3818     1 
 3818  3819     1 
 3818  3820     1 
 3818  3821     1 
 3821  3822     1 
 3821  3823     1 
 3821  3838     1 
 3823  3824     1 
 3824  3825     1 
 3824  3826     1 
 3824  3840     1 
 3826  3827     1 
 3826  3836     1 
 3827  3828     1 
 3827  3829     1 
 3829  3830     1 
 3829  3831     1 
 3831  3832     1 
 3831  3835     1 
 3832  3833     1 
 3832  3834     1 
 3835  3836     1 
 3836  3837     1 
 3838  3839     1 
 3838  3840     1 
 3838  3843     1 
 3840  3841     1 
 3840  3842     1 
 3843  3844     1 
 3844  3845     1 
 3844  3846     1 
 3844  3847     1 
 3847  3848     1 
 3848  3849     1 
 3848  3850     1 
 3848  3851     1 
 3851  3852     1 
 3851  3853     1 
 3851  3868     1 
 3853  3854     1 
 3854  3855     1 
 3854  3856     1 
 3854  3870     1 
 3856  3857     1 
 3856  3866     1 
 3857  3858     1 
 3857  3859     1 
 3859  3860     1 
 3859  3861     1 
 3861  3862     1 
 3861  3865     1 
 3862  3863     1 
 3862  3864     1 
 3865  3866     1 
 3866  3867     1 
 3868  3869     1 
 3868  3870     1 
 3868  3873     1 
 3870  3871     1 
 3870  3872     1 
 3873  3874     1 
 3874  3875     1 
 3874  3876     1 
 3874  3877     1 
 3877  3878     1 
 3878  3879     1 
 3878  3880     1 
 3878  3881     1 
 3881  3882     1 
 3881  3883     1 
 3881  3900     1 
 3883  3884     1 
 3884  3885     1 
 3884  3886     1 
 3884  3902     1 
 3886  3887     1 
 3886  3899     1 
 3887  3888     1 
 3887  3889     1 
 3889  3890     1 
 3890  3891     1 
 3890  3899     1 
 3891  3892     1 
 3891  3895     1 
 3892  3893     1 
 3892  3894     1 
 3895  3896     1 
 3896  3897     1 
 3896  3898     1 
 3898  3899     1 
 3900  3901     1 
 3900  3902     1 
 3900  3905     1 
 3902  3903     1 
 3902  3904     1 
 3905  3906     1 
 3906  3907     1 
 3906  3908     1 
 3906  3909     1 
 3909  3910     1 
 3910  3911     1 
 3910  3912     1 
 3910  3913     1 
 3913  3914     1 
 3913  3915     1 
 3913  3933     1 
 3915  3916     1 
 3916  3917     1 
 3916  3918     1 
 3916  3935     1 
 3918  3919     1 
 3918  3932     1 
 3919  3920     1 
 3919  3921     1 
 3921  3922     1 
 3922  3923     1 
 3922  3932     1 
 3923  3924     1 
 3923  3925     1 
 3925  3926     1 
 3925  3927     1 
 3927  3928     1 
 3927  3931     1 
 3928  3929     1 
 3928  3930     1 
 3931  3932     1 
 3933  3934     1 
 3933  3935     1 
 3933  3938     1 
 3935  3936     1 
 3935  3937     1 
 3938  3939     1 
 3939  3940     1 
 3939  3941     1 
 3939  3942     1 
 3942  3943     1 
 3943  3944     1 
 3943  3945     1 
 3943  3946     1 
 3946  3947     1 
 3946  3948     1 
 3946  3965     1 
 3948  3949     1 
 3949  3950     1 
 3949  3951     1 
 3949  3967     1 
 3951  3952     1 
 3951  3963     1 
 3952  3953     1 
 3952  3954     1 
 3954  3955     1 
 3954  3959     1 
 3955  3956     1 
 3955  3957     1 
 3955  3958     1 
 3959  3960     1 
 3959  3961     1 
 3961  3962     1 
 3961  3963     1 
 3963  3964     1 
 3965  3966     1 
 3965  3967     1 
 3965  3970     1 
 3967  3968     1 
 3967  3969     1 
 3970  3971     1 
 3971  3972     1 
 3971  3973     1 
 3971  3974     1 
 3974  3975     1 
 3975  3976     1 
 3975  3977     1 
 3975  3978     1 
 3978  3979     1 
 3978  3980     1 
 3978  3995     1 
 3980  3981     1 
 3981  3982     1 
 3981  3983     1 
 3981  3997     1 
 3983  3984     1 
 3983  3993     1 
 3984  3985     1 
 3984  3986     1 
 3986  3987     1 
 3986  3988     1 
 3988  3989     1 
 3988  3992     1 
 3989  3990     1 
 3989  3991     1 
 3992  3993     1 
 3993  3994     1 
 3995  3996     1 
 3995  3997     1 
 3995  4000     1 
 3997  3998     1 
 3997  3999     1 
 4000  4001     1 
 4001  4002     1 
 4001  4003     1 
 4001  4004     1 
 4004  4005     1 
 4005  4006     1 
 4005  4007     1 
 4005  4008     1 
 4008  4009     1 
 4008  4010     1 
 4008  4025     1 
 4010  4011     1 
 4011  4012     1 
 4011  4013     1 
 4011  4027     1 
 4013  4014     1 
 4013  4023     1 
 4014  4015     1 
 4014  4016     1 
 4016  4017     1 
 4016  4018     1 
 4018  4019     1 
 4018  4022     1 
 4019  4020     1 
 4019  4021     1 
 4022  4023     1 
 4023  4024     1 
 4025  4026     1 
 4025  4027     1 
 4025  4030     1 
 4027  4028     1 
 4027  4029     1 
 4030  4031     1 
 4031  4032     1 
 4031  4033     1 
 4031  4034     1 
 4034  4035     1 
 4035  4036     1 
 4035  4037     1 
 4035  4038     1 
 4038  4039     1 
 4038  4040     1 
 4038  4058     1 
 4040  4041     1 
 4041  4042     1 
 4041  4043     1 
 4041  4060     1 
 4043  4044     1 
 4043  4057     1 
 4044  4045     1 
 4044  4046     1 
 4046  4047     1 
 4047  4048     1 
 4047  4057     1 
 4048  4049     1 
 4048  4050     1 
 4050  4051     1 
 4050  4052     1 
 4052  4053     1 
 4052  4056     1 
 4053  4054     1 
 4053  4055     1 
 4056  4057     1 
 4058  4059     1 
 4058  4060     1 
 4058  4063     1 
 4060  4061     1 
 4060  4062     1 
 4063  4064     1 
 4064  4065     1 
 4064  4066     1 
 4064  4067     1 
 4067  4068     1 
 4068  4069     1 
 4068  4070     1 
 4068  4071     1 
 4071  4072     1 
 4071  4073     1 
 4071  4090     1 
 4073  4074     1 
 4074  4075     1 
 4074  4076     1 
 4074  4092     1 
 4076  4077     1 
 4076  4089     1 
 4077  4078     1 
 4077  4079     1 
 4079  4080     1 
 4080  4081     1 
 4080  4089     1 
 4081  4082     1 
 4081  4085     1 
 4082  4083     1 
 4082  4084     1 
 4085  4086     1 
 4086  4087     1 
 4086  4088     1 
 4088  4089     1 
 4090  4091     1 
 4090  4092     1 
 4090  4095     1 
 4092  4093     1 
 4092  4094     1 
 4095  4096     1 
 4096  4097     1 
 4096  4098     1 
 4096  4099     1 
 4099  4100     1 
 4100  4101     1 
 4100  4102     1 
 4100  4103     1 
 4103  4104     1 
 4103  4105     1 
 4103  4122     1 
 4105  4106     1 
 4106  4107     1 
 4106  4108     1 
 4106  4124     1 
 4108  4109     1 
 4108  4121     1 
 4109  4110     1 
 4109  4111     1 
 4111  4112     1 
 4112  4113     1 
 4112  4121     1 
 4113  4114     1 
 4113  4117     1 
 4114  4115     1 
 4114  4116     1 
 4117  4118     1 
 4118  4119     1 
 4118  4120     1 
 4120  4121     1 
 4122  4123     1 
 4122  4124     1 
 4122  4127     1 
 4124  4125     1 
 4124  4126     1 
 4127  4128     1 
 4128  4129     1 
 4128  4130     1 
 4128  4131     1 
 4131  4132     1 
 4132  4133     1 
 4132  4134     1 
 4132  4135     1 
 4135  4136     1 
 4135  4137     1 
 4135  4154     1 
 4137  4138     1 
 4138  4139     1 
 4138  4140     1 
 4138  4156     1 
 4140  4141     1 
 4140  4153     1 
 4141  4142     1 
 4141  4143     1 
 4143  4144     1 
 4144  4145     1 
 4144  4153     1 
 4145  4146     1 
 4145  4149     1 
 4146  4147     1 
 4146  4148     1 
 4149  4150     1 
 4150  4151     1 
 4150  4152     1 
 4152  4153     1 
 4154  4155     1 
 4154  4156     1 
 4154  4159     1 
 4156  4157     1 
 4156  4158     1 
 4159  4160     1 
 4160  4161     1 
 4160  4162     1 
 4160  4163     1 
 4163  4164     1 
 4164  4165     1 
 4164  4166     1 
 4164  4167     1 
 4167  4168     1 
 4167  4169     1 
 4167  4186     1 
 4169  4170     1 
 4170  4171     1 
 4170  4172     1 
 4170  4188     1 
 4172  4173     1 
 4172  4184     1 
 4173  4174     1 
 4173  4175     1 
 4175  4176     1 
 4175  4180     1 
 4176  4177     1 
 4176  4178     1 
 4176  4179     1 
 4180  4181     1 
 4180  4182     1 
 4182  4183     1 
 4182  4184     1 
 4184  4185     1 
 4186  4187     1 
 4186  4188     1 
 4186  4191     1 
 4188  4189     1 
 4188  4190     1 
 4191  4192     1 
 4192  4193     1 
 4192  4194     1 
 4192  4195     1 
 4195  4196     1 
 4196  4197     1 
 4196  4198     1 
 4196  4199     1 
 4199  4200     1 
 4199  4201     1 
 4199  4219     1 
 4201  4202     1 
 4202  4203     1 
 4202  4204     1 
 4202  4221     1 
 4204  4205     1 
 4204  4218     1 
 4205  4206     1 
 4205  4207     1 
 4207  4208     1 
 4208  4209     1 
 4208  4218     1 
 4209  4210     1 
 4209  4211     1 
 4211  4212     1 
 4211  4213     1 
 4213  4214     1 
 4213  4217     1 
 4214  4215     1 
 4214  4216     1 
 4217  4218     1 
 4219  4220     1 
 4219  4221     1 
 4219  4224     1 
 4221  4222     1 
 4221  4223     1 
 4224  4225     1 
 4225  4226     1 
 4225  4227     1 
 4225  4228     1 
 4228  4229     1 
 4229  4230     1 
 4229  4231     1 
 4229  4232     1 
 4232  4233     1 
 4232  4234     1 
 4232  4252     1 
 4234  4235     1 
 4235  4236     1 
 4235  4237     1 
 4235  4254     1 
 4237  4238     1 
 4237  4251     1 
 4238  4239     1 
 4238  4240     1 
 4240  4241     1 
 4241  4242     1 
 4241  4251     1 
 4242  4243     1 
 4242  4244     1 
 4244  4245     1 
 4244  4246     1 
 4246  4247     1 
 4246  4250     1 
 4247  4248     1 
 4247  4249     1 
 4250  4251     1 
 4252  4253     1 
 4252  4254     1 
 4252  4257     1 
 4254  4255     1 
 4254  4256     1 
 4257  4258     1 
 4258  4259     1 
 4258  4260     1 
 4258  4261     1 
 4261  4262     1 
 4262  4263     1 
 4262  4264     1 
 4262  4265     1 
 4265  4266     1 
 4265  4267     1 
 4265  4282     1 
 4267  4268     1 
 4268  4269     1 
 4268  4270     1 
 4268  4284     1 
 4270  4271     1 
 4270  4280     1 
 4271  4272     1 
 4271  4273     1 
 4273  4274     1 
 4273  4275     1 
 4275  4276     1 
 4275  4279     1 
 4276  4277     1 
 4276  4278     1 
 4279  4280     1 
 4280  4281     1 
 4282  4283     1 
 4282  4284     1 
 4282  4287     1 
 4284  4285     1 
 4284  4286     1 
 4287  4288     1 
 4288  4289     1 
 4288  4290     1 
 4288  4291     1 
 4291  4292     1 
 4292  4293     1 
 4292  4294     1 
 4292  4295     1 
 4295  4296     1 
 4295  4297     1 
 4295  4315     1 
 4297  4298     1 
 4298  4299     1 
 4298  4300     1 
 4298  4317     1 
 4300  4301     1 
 4300  4314     1 
 4301  4302     1 
 4301  4303     1 
 4303  4304     1 
 4304  4305     1 
 4304  4314     1 
 4305  4306     1 
 4305  4307     1 
 4307  4308     1 
 4307  4309     1 
 4309  4310     1 
 4309  4313     1 
 4310  4311     1 
 4310  4312     1 
 4313  4314     1 
 4315  4316     1 
 4315  4317     1 
 4315  4320     1 
 4317  4318     1 
 4317  4319     1 
 4320  4321     1 
 4321  4322     1 
 4321  4323     1 
 4321  4324     1 
 4324  4325     1 
 4325  4326     1 
 4325  4327     1 
 4325  4328     1 
 4328  4329     1 
 4328  4330     1 
 4328  4348     1 
 4330  4331     1 
 4331  4332     1 
 4331  4333     1 
 4331  4350     1 
 4333  4334     1 
 4333  4347     1 
 4334  4335     1 
 4334  4336     1 
 4336  4337     1 
 4337  4338     1 
 4337  4347     1 
 4338  4339     1 
 4338  4340     1 
 4340  4341     1 
 4340  4342     1 
 4342  4343     1 
 4342  4346     1 
 4343  4344     1 
 4343  4345     1 
 4346  4347     1 
 4348  4349     1 
 4348  4350     1 
 4348  4353     1 
 4350  4351     1 
 4350  4352     1 
 4353  4354     1 
 4354  4355     1 
 4354  4356     1 
 4354  4357     1 
 4357  4358     1 
 4358  4359     1 
 4358  4360     1 
 4358  4361     1 
 4361  4362     1 
 4361  4363     1 
 4361  4381     1 
 4363  4364     1 
 4364  4365     1 
 4364  4366     1 
 4364  4383     1 
 4366  4367     1 
 4366  4380     1 
 4367  4368     1 
 4367  4369     1 
 4369  4370     1 
 4370  4371     1 
 4370  4380     1 
 4371  4372     1 
 4371  4373     1 
 4373  4374     1 
 4373  4375     1 
 4375  4376     1 
 4375  4379     1 
 4376  4377     1 
 4376  4378     1 
 4379  4380     1 
 4381  4382     1 
 4381  4383     1 
 4381  4386     1 
 4383  4384     1 
 4383  4385     1 
 4386  4387     1 
 4387  4388     1 
 4387  4389     1 
 4387  4390     1 
 4390  4391     1 
 4391  4392     1 
 4391  4393     1 
 4391  4394     1 
 4394  4395     1 
 4394  4396     1 
 4394  4414     1 
 4396  4397     1 
 4397  4398     1 
 4397  4399     1 
 4397  4416     1 
 4399  4400     1 
 4399  4413     1 
 4400  4401     1 
 4400  4402     1 
 4402  4403     1 
 4403  4404     1 
 4403  4413     1 
 4404  4405     1 
 4404  4406     1 
 4406  4407     1 
 4406  4408     1 
 4408  4409     1 
 4408  4412     1 
 4409  4410     1 
 4409  4411     1 
 4412  4413     1 
 4414  4415     1 
 4414  4416     1 
 4414  4419     1 
 4416  4417     1 
 4416  4418     1 
 4419  4420     1 
 4420  4421     1 
 4420  4422     1 
 4420  4423     1 
 4423  4424     1 
 4424  4425     1 
 4424  4426     1 
 4424  4427     1 
 4427  4428     1 
 4427  4429     1 
 4427  4447     1 
 4429  4430     1 
 4430  4431     1 
 4430  4432     1 
 4430  4449     1 
 4432  4433     1 
 4432  4446     1 
 4433  4434     1 
 4433  4435     1 
 4435  4436     1 
 4436  4437     1 
 4436  4446     1 
 4437  4438     1 
 4437  4439     1 
 4439  4440     1 
 4439  4441     1 
 4441  4442     1 
 4441  4445     1 
 4442  4443     1 
 4442  4444     1 
 4445  4446     1 
 4447  4448     1 
 4447  4449     1 
 4447  4452     1 
 4449  4450     1 
 4449  4451     1 
 4452  4453     1 
 4453  4454     1 
 4453  4455     1 
 4453  4456     1 
 4456  4457     1 
 4457  4458     1 
 4457  4459     1 
 4457  4460     1 
 4460  4461     1 
 4460  4462     1 
 4460  4477     1 
 4462  4463     1 
 4463  4464     1 
 4463  4465     1 
 4463  4479     1 
 4465  4466     1 
 4465  4475     1 
 4466  4467     1 
 4466  4468     1 
 4468  4469     1 
 4468  4470     1 
 4470  4471     1 
 4470  4474     1 
 4471  4472     1 
 4471  4473     1 
 4474  4475     1 
 4475  4476     1 
 4477  4478     1 
 4477  4479     1 
 4477  4482     1 
 4479  4480     1 
 4479  4481     1 
 4482  4483     1 
 4483  4484     1 
 4483  4485     1 
 4483  4486     1 
 4486  4487     1 
 4487  4488     1 
 4487  4489     1 
 4487  4490     1 
 4490  4491     1 
 4490  4492     1 
 4490  4507     1 
 4492  4493     1 
 4493  4494     1 
 4493  4495     1 
 4493  4509     1 
 4495  4496     1 
 4495  4505     1 
 4496  4497     1 
 4496  4498     1 
 4498  4499     1 
 4498  4500     1 
 4500  4501     1 
 4500  4504     1 
 4501  4502     1 
 4501  4503     1 
 4504  4505     1 
 4505  4506     1 
 4507  4508     1 
 4507  4509     1 
 4507  4512     1 
 4509  4510     1 
 4509  4511     1 
 4512  4513     1 
 4513  4514     1 
 4513  4515     1 
 4513  4516     1 
 4516  4517     1 
 4517  4518     1 
 4517  4519     1 
 4517  4520     1 
 4520  4521     1 
 4520  4522     1 
 4520  4540     1 
 4522  4523     1 
 4523  4524     1 
 4523  4525     1 
 4523  4542     1 
 4525  4526     1 
 4525  4539     1 
 4526  4527     1 
 4526  4528     1 
 4528  4529     1 
 4529  4530     1 
 4529  4539     1 
 4530  4531     1 
 4530  4532     1 
 4532  4533     1 
 4532  4534     1 
 4534  4535     1 
 4534  4538     1 
 4535  4536     1 
 4535  4537     1 
 4538  4539     1 
 4540  4541     1 
 4540  4542     1 
 4540  4545     1 
 4542  4543     1 
 4542  4544     1 
 4545  4546     1 
 4546  4547     1 
 4546  4548     1 
 4546  4549     1 
 4549  4550     1 
 4550  4551     1 
 4550  4552     1 
 4550  4553     1 
 4553  4554     1 
 4553  4555     1 
 4553  4573     1 
 4555  4556     1 
 4556  4557     1 
 4556  4558     1 
 4556  4575     1 
 4558  4559     1 
 4558  4572     1 
 4559  4560     1 
 4559  4561     1 
 4561  4562     1 
 4562  4563     1 
 4562  4572     1 
 4563  4564     1 
 4563  4565     1 
 4565  4566     1 
 4565  4567     1 
 4567  4568     1 
 4567  4571     1 
 4568  4569     1 
 4568  4570     1 
 4571  4572     1 
 4573  4574     1 
 4573  4575     1 
 4573  4578     1 
 4575  4576     1 
 4575  4577     1 
 4578  4579     1 
 4579  4580     1 
 4579  4581     1 
 4579  4582     1 
 4582  4583     1 
 4583  4584     1 
 4583  4585     1 
 4583  4586     1 
 4586  4587     1 
 4586  4588     1 
 4586  4606     1 
 4588  4589     1 
 4589  4590     1 
 4589  4591     1 
 4589  4608     1 
 4591  4592     1 
 4591  4605     1 
 4592  4593     1 
 4592  4594     1 
 4594  4595     1 
 4595  4596     1 
 4595  4605     1 
 4596  4597     1 
 4596  4598     1 
 4598  4599     1 
 4598  4600     1 
 4600  4601     1 
 4600  4604     1 
 4601  4602     1 
 4601  4603     1 
 4604  4605     1 
 4606  4607     1 
 4606  4608     1 
 4606  4611     1 
 4608  4609     1 
 4608  4610     1 
 4611  4612     1 

[ pairs ]
;  ai    aj funct            c0            c1            c2            c3
    1     7     1 
    1     8     1 
    1    25     1 
    2     4     1 
    2     5     1 
    2     6     1 
    3     9     1 
    3    26     1 
    3    27     1 
    3    30     1 
    4     7     1 
    4     8     1 
    4    25     1 
    5     7     1 
    5     8     1 
    5    25     1 
    6    10     1 
    6    11     1 
    6    28     1 
    6    29     1 
    6    31     1 
    7     9     1 
    7    26     1 
    7    27     1 
    7    30     1 
    8    12     1 
    8    24     1 
    8    26     1 
    8    28     1 
    8    29     1 
    8    30     1 
    9    13     1 
    9    14     1 
    9    15     1 
    9    23     1 
    9    26     1 
    9    30     1 
   10    12     1 
   10    24     1 
   10    25     1 
   10    28     1 
   10    29     1 
   11    16     1 
   11    21     1 
   11    25     1 
   11    28     1 
   11    29     1 
   12    16     1 
   12    23     1 
   12    27     1 
   13    15     1 
   13    24     1 
   14    17     1 
   14    20     1 
   14    23     1 
   15    18     1 
   15    19     1 
   15    21     1 
   16    22     1 
   16    23     1 
   17    21     1 
   17    24     1 
   18    20     1 
   19    20     1 
   20    24     1 
   22    24     1 
   24    27     1 
   25    32     1 
   25    33     1 
   25    34     1 
   26    28     1 
   26    29     1 
   26    31     1 
   27    31     1 
   28    30     1 
   29    30     1 
   30    35     1 
   31    36     1 
   31    37     1 
   31    38     1 
   32    35     1 
   33    35     1 
   34    39     1 
   34    40     1 
   34    58     1 
   35    41     1 
   35    59     1 
   35    60     1 
   35    63     1 
   36    39     1 
   36    40     1 
   36    58     1 
   37    39     1 
   37    40     1 
   37    58     1 
   38    42     1 
   38    43     1 
   38    61     1 
   38    62     1 
   38    64     1 
   39    41     1 
   39    59     1 
   39    60     1 
   39    63     1 
   40    44     1 
   40    57     1 
   40    59     1 
   40    61     1 
   40    62     1 
   40    63     1 
   41    45     1 
   41    46     1 
   41    47     1 
   41    56     1 
   41    59     1 
   41    63     1 
   42    44     1 
   42    57     1 
   42    58     1 
   42    61     1 
   42    62     1 
   43    48     1 
   43    52     1 
   43    58     1 
   43    61     1 
   43    62     1 
   44    48     1 
   44    56     1 
   44    60     1 
   45    47     1 
   45    57     1 
   46    49     1 
   46    50     1 
   46    56     1 
   47    51     1 
   47    52     1 
   48    53     1 
   48    56     1 
   49    51     1 
   49    52     1 
   49    57     1 
   50    54     1 
   50    55     1 
   50    57     1 
   51    53     1 
   51    56     1 
   53    57     1 
   54    56     1 
   55    56     1 
   57    60     1 
   58    65     1 
   58    66     1 
   58    67     1 
   59    61     1 
   59    62     1 
   59    64     1 
   60    64     1 
   61    63     1 
   62    63     1 
   63    68     1 
   64    69     1 
   64    70     1 
   64    71     1 
   65    68     1 
   66    68     1 
   67    72     1 
   67    73     1 
   67    91     1 
   68    74     1 
   68    92     1 
   68    93     1 
   68    96     1 
   69    72     1 
   69    73     1 
   69    91     1 
   70    72     1 
   70    73     1 
   70    91     1 
   71    75     1 
   71    76     1 
   71    94     1 
   71    95     1 
   71    97     1 
   72    74     1 
   72    92     1 
   72    93     1 
   72    96     1 
   73    77     1 
   73    90     1 
   73    92     1 
   73    94     1 
   73    95     1 
   73    96     1 
   74    78     1 
   74    79     1 
   74    80     1 
   74    89     1 
   74    92     1 
   74    96     1 
   75    77     1 
   75    90     1 
   75    91     1 
   75    94     1 
   75    95     1 
   76    81     1 
   76    85     1 
   76    91     1 
   76    94     1 
   76    95     1 
   77    81     1 
   77    89     1 
   77    93     1 
   78    80     1 
   78    90     1 
   79    82     1 
   79    83     1 
   79    89     1 
   80    84     1 
   80    85     1 
   81    86     1 
   81    89     1 
   82    84     1 
   82    85     1 
   82    90     1 
   83    87     1 
   83    88     1 
   83    90     1 
   84    86     1 
   84    89     1 
   86    90     1 
   87    89     1 
   88    89     1 
   90    93     1 
   91    98     1 
   91    99     1 
   91   100     1 
   92    94     1 
   92    95     1 
   92    97     1 
   93    97     1 
   94    96     1 
   95    96     1 
   96   101     1 
   97   102     1 
   97   103     1 
   97   104     1 
   98   101     1 
   99   101     1 
  100   105     1 
  100   106     1 
  100   124     1 
  101   107     1 
  101   125     1 
  101   126     1 
  101   129     1 
  102   105     1 
  102   106     1 
  102   124     1 
  103   105     1 
  103   106     1 
  103   124     1 
  104   108     1 
  104   109     1 
  104   127     1 
  104   128     1 
  104   130     1 
  105   107     1 
  105   125     1 
  105   126     1 
  105   129     1 
  106   110     1 
  106   123     1 
  106   125     1 
  106   127     1 
  106   128     1 
  106   129     1 
  107   111     1 
  107   112     1 
  107   113     1 
  107   122     1 
  107   125     1 
  107   129     1 
  108   110     1 
  108   123     1 
  108   124     1 
  108   127     1 
  108   128     1 
  109   114     1 
  109   118     1 
  109   124     1 
  109   127     1 
  109   128     1 
  110   114     1 
  110   122     1 
  110   126     1 
  111   113     1 
  111   123     1 
  112   115     1 
  112   116     1 
  112   122     1 
  113   117     1 
  113   118     1 
  114   119     1 
  114   122     1 
  115   117     1 
  115   118     1 
  115   123     1 
  116   120     1 
  116   121     1 
  116   123     1 
  117   119     1 
  117   122     1 
  119   123     1 
  120   122     1 
  121   122     1 
  123   126     1 
  124   131     1 
  124   132     1 
  124   133     1 
  125   127     1 
  125   128     1 
  125   130     1 
  126   130     1 
  127   129     1 
  128   129     1 
  129   134     1 
  130   135     1 
  130   136     1 
  130   137     1 
  131   134     1 
  132   134     1 
  133   138     1 
  133   139     1 
  133   156     1 
  134   140     1 
  134   157     1 
  134   158     1 
  134   161     1 
  135   138     1 
  135   139     1 
  135   156     1 
  136   138     1 
  136   139     1 
  136   156     1 
  137   141     1 
  137   142     1 
  137   159     1 
  137   160     1 
  137   162     1 
  138   140     1 
  138   157     1 
  138   158     1 
  138   161     1 
  139   143     1 
  139   154     1 
  139   157     1 
  139   159     1 
  139   160     1 
  139   161     1 
  140   144     1 
  140   145     1 
  140   152     1 
  140   155     1 
  140   157     1 
  140   161     1 
  141   143     1 
  141   154     1 
  141   156     1 
  141   159     1 
  141   160     1 
  142   146     1 
  142   150     1 
  142   153     1 
  142   156     1 
  142   159     1 
  142   160     1 
  143   147     1 
  143   148     1 
  143   149     1 
  143   151     1 
  143   152     1 
  143   155     1 
  143   158     1 
  144   146     1 
  144   150     1 
  144   154     1 
  145   153     1 
  145   154     1 
  146   151     1 
  146   152     1 
  147   150     1 
  148   150     1 
  149   150     1 
  150   155     1 
  151   153     1 
  151   154     1 
  153   155     1 
  154   158     1 
  156   163     1 
  156   164     1 
  156   165     1 
  157   159     1 
  157   160     1 
  157   162     1 
  158   162     1 
  159   161     1 
  160   161     1 
  161   166     1 
  162   167     1 
  162   168     1 
  162   169     1 
  163   166     1 
  164   166     1 
  165   170     1 
  165   171     1 
  165   186     1 
  166   172     1 
  166   187     1 
  166   188     1 
  166   191     1 
  167   170     1 
  167   171     1 
  167   186     1 
  168   170     1 
  168   171     1 
  168   186     1 
  169   173     1 
  169   174     1 
  169   189     1 
  169   190     1 
  169   192     1 
  170   172     1 
  170   187     1 
  170   188     1 
  170   191     1 
  171   175     1 
  171   184     1 
  171   187     1 
  171   189     1 
  171   190     1 
  171   191     1 
  172   176     1 
  172   177     1 
  172   183     1 
  172   185     1 
  172   187     1 
  172   191     1 
  173   175     1 
  173   184     1 
  173   186     1 
  173   189     1 
  173   190     1 
  174   178     1 
  174   179     1 
  174   186     1 
  174   189     1 
  174   190     1 
  175   180     1 
  175   183     1 
  175   185     1 
  175   188     1 
  176   178     1 
  176   179     1 
  176   184     1 
  177   181     1 
  177   182     1 
  177   184     1 
  178   180     1 
  178   183     1 
  179   185     1 
  180   184     1 
  181   183     1 
  182   183     1 
  184   188     1 
  186   193     1 
  186   194     1 
  186   195     1 
  187   189     1 
  187   190     1 
  187   192     1 
  188   192     1 
  189   191     1 
  190   191     1 
  191   196     1 
  192   197     1 
  192   198     1 
  192   199     1 
  193   196     1 
  194   196     1 
  195   200     1 
  195   201     1 
  195   219     1 
  196   202     1 
  196   220     1 
  196   221     1 
  196   224     1 
  197   200     1 
  197   201     1 
  197   219     1 
  198   200     1 
  198   201     1 
  198   219     1 
  199   203     1 
  199   204     1 
  199   222     1 
  199   223     1 
  199   225     1 
  200   202     1 
  200   220     1 
  200   221     1 
  200   224     1 
  201   205     1 
  201   218     1 
  201   220     1 
  201   222     1 
  201   223     1 
  201   224     1 
  202   206     1 
  202   207     1 
  202   208     1 
  202   217     1 
  202   220     1 
  202   224     1 
  203   205     1 
  203   218     1 
  203   219     1 
  203   222     1 
  203   223     1 
  204   209     1 
  204   213     1 
  204   219     1 
  204   222     1 
  204   223     1 
  205   209     1 
  205   217     1 
  205   221     1 
  206   208     1 
  206   218     1 
  207   210     1 
  207   211     1 
  207   217     1 
  208   212     1 
  208   213     1 
  209   214     1 
  209   217     1 
  210   212     1 
  210   213     1 
  210   218     1 
  211   215     1 
  211   216     1 
  211   218     1 
  212   214     1 
  212   217     1 
  214   218     1 
  215   217     1 
  216   217     1 
  218   221     1 
  219   226     1 
  219   227     1 
  219   228     1 
  220   222     1 
  220   223     1 
  220   225     1 
  221   225     1 
  222   224     1 
  223   224     1 
  224   229     1 
  225   230     1 
  225   231     1 
  225   232     1 
  226   229     1 
  227   229     1 
  228   233     1 
  228   234     1 
  228   252     1 
  229   235     1 
  229   253     1 
  229   254     1 
  229   257     1 
  230   233     1 
  230   234     1 
  230   252     1 
  231   233     1 
  231   234     1 
  231   252     1 
  232   236     1 
  232   237     1 
  232   255     1 
  232   256     1 
  232   258     1 
  233   235     1 
  233   253     1 
  233   254     1 
  233   257     1 
  234   238     1 
  234   251     1 
  234   253     1 
  234   255     1 
  234   256     1 
  234   257     1 
  235   239     1 
  235   240     1 
  235   241     1 
  235   250     1 
  235   253     1 
  235   257     1 
  236   238     1 
  236   251     1 
  236   252     1 
  236   255     1 
  236   256     1 
  237   242     1 
  237   246     1 
  237   252     1 
  237   255     1 
  237   256     1 
  238   242     1 
  238   250     1 
  238   254     1 
  239   241     1 
  239   251     1 
  240   243     1 
  240   244     1 
  240   250     1 
  241   245     1 
  241   246     1 
  242   247     1 
  242   250     1 
  243   245     1 
  243   246     1 
  243   251     1 
  244   248     1 
  244   249     1 
  244   251     1 
  245   247     1 
  245   250     1 
  247   251     1 
  248   250     1 
  249   250     1 
  251   254     1 
  252   259     1 
  252   260     1 
  252   261     1 
  253   255     1 
  253   256     1 
  253   258     1 
  254   258     1 
  255   257     1 
  256   257     1 
  257   262     1 
  258   263     1 
  258   264     1 
  258   265     1 
  259   262     1 
  260   262     1 
  261   266     1 
  261   267     1 
  261   285     1 
  262   268     1 
  262   286     1 
  262   287     1 
  262   290     1 
  263   266     1 
  263   267     1 
  263   285     1 
  264   266     1 
  264   267     1 
  264   285     1 
  265   269     1 
  265   270     1 
  265   288     1 
  265   289     1 
  265   291     1 
  266   268     1 
  266   286     1 
  266   287     1 
  266   290     1 
  267   271     1 
  267   284     1 
  267   286     1 
  267   288     1 
  267   289     1 
  267   290     1 
  268   272     1 
  268   273     1 
  268   274     1 
  268   283     1 
  268   286     1 
  268   290     1 
  269   271     1 
  269   284     1 
  269   285     1 
  269   288     1 
  269   289     1 
  270   275     1 
  270   279     1 
  270   285     1 
  270   288     1 
  270   289     1 
  271   275     1 
  271   283     1 
  271   287     1 
  272   274     1 
  272   284     1 
  273   276     1 
  273   277     1 
  273   283     1 
  274   278     1 
  274   279     1 
  275   280     1 
  275   283     1 
  276   278     1 
  276   279     1 
  276   284     1 
  277   281     1 
  277   282     1 
  277   284     1 
  278   280     1 
  278   283     1 
  280   284     1 
  281   283     1 
  282   283     1 
  284   287     1 
  285   292     1 
  285   293     1 
  285   294     1 
  286   288     1 
  286   289     1 
  286   291     1 
  287   291     1 
  288   290     1 
  289   290     1 
  290   295     1 
  291   296     1 
  291   297     1 
  291   298     1 
  292   295     1 
  293   295     1 
  294   299     1 
  294   300     1 
  294   317     1 
  295   301     1 
  295   318     1 
  295   319     1 
  295   322     1 
  296   299     1 
  296   300     1 
  296   317     1 
  297   299     1 
  297   300     1 
  297   317     1 
  298   302     1 
  298   303     1 
  298   320     1 
  298   321     1 
  298   323     1 
  299   301     1 
  299   318     1 
  299   319     1 
  299   322     1 
  300   304     1 
  300   316     1 
  300   318     1 
  300   320     1 
  300   321     1 
  300   322     1 
  301   305     1 
  301   306     1 
  301   307     1 
  301   315     1 
  301   318     1 
  301   322     1 
  302   304     1 
  302   316     1 
  302   317     1 
  302   320     1 
  302   321     1 
  303   308     1 
  303   313     1 
  303   317     1 
  303   320     1 
  303   321     1 
  304   308     1 
  304   315     1 
  304   319     1 
  305   307     1 
  305   316     1 
  306   309     1 
  306   312     1 
  306   315     1 
  307   310     1 
  307   311     1 
  307   313     1 
  308   314     1 
  308   315     1 
  309   313     1 
  309   316     1 
  310   312     1 
  311   312     1 
  312   316     1 
  314   316     1 
  316   319     1 
  317   324     1 
  317   325     1 
  317   326     1 
  318   320     1 
  318   321     1 
  318   323     1 
  319   323     1 
  320   322     1 
  321   322     1 
  322   327     1 
  323   328     1 
  323   329     1 
  323   330     1 
  324   327     1 
  325   327     1 
  326   331     1 
  326   332     1 
  326   347     1 
  327   333     1 
  327   348     1 
  327   349     1 
  327   352     1 
  328   331     1 
  328   332     1 
  328   347     1 
  329   331     1 
  329   332     1 
  329   347     1 
  330   334     1 
  330   335     1 
  330   350     1 
  330   351     1 
  330   353     1 
  331   333     1 
  331   348     1 
  331   349     1 
  331   352     1 
  332   336     1 
  332   345     1 
  332   348     1 
  332   350     1 
  332   351     1 
  332   352     1 
  333   337     1 
  333   338     1 
  333   344     1 
  333   346     1 
  333   348     1 
  333   352     1 
  334   336     1 
  334   345     1 
  334   347     1 
  334   350     1 
  334   351     1 
  335   339     1 
  335   340     1 
  335   347     1 
  335   350     1 
  335   351     1 
  336   341     1 
  336   344     1 
  336   346     1 
  336   349     1 
  337   339     1 
  337   340     1 
  337   345     1 
  338   342     1 
  338   343     1 
  338   345     1 
  339   341     1 
  339   344     1 
  340   346     1 
  341   345     1 
  342   344     1 
  343   344     1 
  345   349     1 
  347   354     1 
  347   355     1 
  347   356     1 
  348   350     1 
  348   351     1 
  348   353     1 
  349   353     1 
  350   352     1 
  351   352     1 
  352   357     1 
  353   358     1 
  353   359     1 
  353   360     1 
  354   357     1 
  355   357     1 
  356   361     1 
  356   362     1 
  356   377     1 
  357   363     1 
  357   378     1 
  357   379     1 
  357   382     1 
  358   361     1 
  358   362     1 
  358   377     1 
  359   361     1 
  359   362     1 
  359   377     1 
  360   364     1 
  360   365     1 
  360   380     1 
  360   381     1 
  360   383     1 
  361   363     1 
  361   378     1 
  361   379     1 
  361   382     1 
  362   366     1 
  362   375     1 
  362   378     1 
  362   380     1 
  362   381     1 
  362   382     1 
  363   367     1 
  363   368     1 
  363   374     1 
  363   376     1 
  363   378     1 
  363   382     1 
  364   366     1 
  364   375     1 
  364   377     1 
  364   380     1 
  364   381     1 
  365   369     1 
  365   370     1 
  365   377     1 
  365   380     1 
  365   381     1 
  366   371     1 
  366   374     1 
  366   376     1 
  366   379     1 
  367   369     1 
  367   370     1 
  367   375     1 
  368   372     1 
  368   373     1 
  368   375     1 
  369   371     1 
  369   374     1 
  370   376     1 
  371   375     1 
  372   374     1 
  373   374     1 
  375   379     1 
  377   384     1 
  377   385     1 
  377   386     1 
  378   380     1 
  378   381     1 
  378   383     1 
  379   383     1 
  380   382     1 
  381   382     1 
  382   387     1 
  383   388     1 
  383   389     1 
  383   390     1 
  384   387     1 
  385   387     1 
  386   391     1 
  386   392     1 
  386   407     1 
  387   393     1 
  387   408     1 
  387   409     1 
  387   412     1 
  388   391     1 
  388   392     1 
  388   407     1 
  389   391     1 
  389   392     1 
  389   407     1 
  390   394     1 
  390   395     1 
  390   410     1 
  390   411     1 
  390   413     1 
  391   393     1 
  391   408     1 
  391   409     1 
  391   412     1 
  392   396     1 
  392   405     1 
  392   408     1 
  392   410     1 
  392   411     1 
  392   412     1 
  393   397     1 
  393   398     1 
  393   404     1 
  393   406     1 
  393   408     1 
  393   412     1 
  394   396     1 
  394   405     1 
  394   407     1 
  394   410     1 
  394   411     1 
  395   399     1 
  395   400     1 
  395   407     1 
  395   410     1 
  395   411     1 
  396   401     1 
  396   404     1 
  396   406     1 
  396   409     1 
  397   399     1 
  397   400     1 
  397   405     1 
  398   402     1 
  398   403     1 
  398   405     1 
  399   401     1 
  399   404     1 
  400   406     1 
  401   405     1 
  402   404     1 
  403   404     1 
  405   409     1 
  407   414     1 
  407   415     1 
  407   416     1 
  408   410     1 
  408   411     1 
  408   413     1 
  409   413     1 
  410   412     1 
  411   412     1 
  412   417     1 
  413   418     1 
  413   419     1 
  413   420     1 
  414   417     1 
  415   417     1 
  416   421     1 
  416   422     1 
  416   440     1 
  417   423     1 
  417   441     1 
  417   442     1 
  417   445     1 
  418   421     1 
  418   422     1 
  418   440     1 
  419   421     1 
  419   422     1 
  419   440     1 
  420   424     1 
  420   425     1 
  420   443     1 
  420   444     1 
  420   446     1 
  421   423     1 
  421   441     1 
  421   442     1 
  421   445     1 
  422   426     1 
  422   439     1 
  422   441     1 
  422   443     1 
  422   444     1 
  422   445     1 
  423   427     1 
  423   428     1 
  423   429     1 
  423   438     1 
  423   441     1 
  423   445     1 
  424   426     1 
  424   439     1 
  424   440     1 
  424   443     1 
  424   444     1 
  425   430     1 
  425   434     1 
  425   440     1 
  425   443     1 
  425   444     1 
  426   430     1 
  426   438     1 
  426   442     1 
  427   429     1 
  427   439     1 
  428   431     1 
  428   432     1 
  428   438     1 
  429   433     1 
  429   434     1 
  430   435     1 
  430   438     1 
  431   433     1 
  431   434     1 
  431   439     1 
  432   436     1 
  432   437     1 
  432   439     1 
  433   435     1 
  433   438     1 
  435   439     1 
  436   438     1 
  437   438     1 
  439   442     1 
  440   447     1 
  440   448     1 
  440   449     1 
  441   443     1 
  441   444     1 
  441   446     1 
  442   446     1 
  443   445     1 
  444   445     1 
  445   450     1 
  446   451     1 
  446   452     1 
  446   453     1 
  447   450     1 
  448   450     1 
  449   454     1 
  449   455     1 
  449   473     1 
  450   456     1 
  450   474     1 
  450   475     1 
  450   478     1 
  451   454     1 
  451   455     1 
  451   473     1 
  452   454     1 
  452   455     1 
  452   473     1 
  453   457     1 
  453   458     1 
  453   476     1 
  453   477     1 
  453   479     1 
  454   456     1 
  454   474     1 
  454   475     1 
  454   478     1 
  455   459     1 
  455   472     1 
  455   474     1 
  455   476     1 
  455   477     1 
  455   478     1 
  456   460     1 
  456   461     1 
  456   462     1 
  456   471     1 
  456   474     1 
  456   478     1 
  457   459     1 
  457   472     1 
  457   473     1 
  457   476     1 
  457   477     1 
  458   463     1 
  458   467     1 
  458   473     1 
  458   476     1 
  458   477     1 
  459   463     1 
  459   471     1 
  459   475     1 
  460   462     1 
  460   472     1 
  461   464     1 
  461   465     1 
  461   471     1 
  462   466     1 
  462   467     1 
  463   468     1 
  463   471     1 
  464   466     1 
  464   467     1 
  464   472     1 
  465   469     1 
  465   470     1 
  465   472     1 
  466   468     1 
  466   471     1 
  468   472     1 
  469   471     1 
  470   471     1 
  472   475     1 
  473   480     1 
  473   481     1 
  473   482     1 
  474   476     1 
  474   477     1 
  474   479     1 
  475   479     1 
  476   478     1 
  477   478     1 
  478   483     1 
  479   484     1 
  479   485     1 
  479   486     1 
  480   483     1 
  481   483     1 
  482   487     1 
  482   488     1 
  482   506     1 
  483   489     1 
  483   507     1 
  483   508     1 
  483   511     1 
  484   487     1 
  484   488     1 
  484   506     1 
  485   487     1 
  485   488     1 
  485   506     1 
  486   490     1 
  486   491     1 
  486   509     1 
  486   510     1 
  486   512     1 
  487   489     1 
  487   507     1 
  487   508     1 
  487   511     1 
  488   492     1 
  488   505     1 
  488   507     1 
  488   509     1 
  488   510     1 
  488   511     1 
  489   493     1 
  489   494     1 
  489   495     1 
  489   504     1 
  489   507     1 
  489   511     1 
  490   492     1 
  490   505     1 
  490   506     1 
  490   509     1 
  490   510     1 
  491   496     1 
  491   500     1 
  491   506     1 
  491   509     1 
  491   510     1 
  492   496     1 
  492   504     1 
  492   508     1 
  493   495     1 
  493   505     1 
  494   497     1 
  494   498     1 
  494   504     1 
  495   499     1 
  495   500     1 
  496   501     1 
  496   504     1 
  497   499     1 
  497   500     1 
  497   505     1 
  498   502     1 
  498   503     1 
  498   505     1 
  499   501     1 
  499   504     1 
  501   505     1 
  502   504     1 
  503   504     1 
  505   508     1 
  506   513     1 
  506   514     1 
  506   515     1 
  507   509     1 
  507   510     1 
  507   512     1 
  508   512     1 
  509   511     1 
  510   511     1 
  511   516     1 
  512   517     1 
  512   518     1 
  512   519     1 
  513   516     1 
  514   516     1 
  515   520     1 
  515   521     1 
  515   536     1 
  516   522     1 
  516   537     1 
  516   538     1 
  516   541     1 
  517   520     1 
  517   521     1 
  517   536     1 
  518   520     1 
  518   521     1 
  518   536     1 
  519   523     1 
  519   524     1 
  519   539     1 
  519   540     1 
  519   542     1 
  520   522     1 
  520   537     1 
  520   538     1 
  520   541     1 
  521   525     1 
  521   534     1 
  521   537     1 
  521   539     1 
  521   540     1 
  521   541     1 
  522   526     1 
  522   527     1 
  522   533     1 
  522   535     1 
  522   537     1 
  522   541     1 
  523   525     1 
  523   534     1 
  523   536     1 
  523   539     1 
  523   540     1 
  524   528     1 
  524   529     1 
  524   536     1 
  524   539     1 
  524   540     1 
  525   530     1 
  525   533     1 
  525   535     1 
  525   538     1 
  526   528     1 
  526   529     1 
  526   534     1 
  527   531     1 
  527   532     1 
  527   534     1 
  528   530     1 
  528   533     1 
  529   535     1 
  530   534     1 
  531   533     1 
  532   533     1 
  534   538     1 
  536   543     1 
  536   544     1 
  536   545     1 
  537   539     1 
  537   540     1 
  537   542     1 
  538   542     1 
  539   541     1 
  540   541     1 
  541   546     1 
  542   547     1 
  542   548     1 
  542   549     1 
  543   546     1 
  544   546     1 
  545   550     1 
  545   551     1 
  545   568     1 
  546   552     1 
  546   569     1 
  546   570     1 
  546   573     1 
  547   550     1 
  547   551     1 
  547   568     1 
  548   550     1 
  548   551     1 
  548   568     1 
  549   553     1 
  549   554     1 
  549   571     1 
  549   572     1 
  549   574     1 
  550   552     1 
  550   569     1 
  550   570     1 
  550   573     1 
  551   555     1 
  551   567     1 
  551   569     1 
  551   571     1 
  551   572     1 
  551   573     1 
  552   556     1 
  552   557     1 
  552   558     1 
  552   566     1 
  552   569     1 
  552   573     1 
  553   555     1 
  553   567     1 
  553   568     1 
  553   571     1 
  553   572     1 
  554   559     1 
  554   564     1 
  554   568     1 
  554   571     1 
  554   572     1 
  555   559     1 
  555   566     1 
  555   570     1 
  556   558     1 
  556   567     1 
  557   560     1 
  557   563     1 
  557   566     1 
  558   561     1 
  558   562     1 
  558   564     1 
  559   565     1 
  559   566     1 
  560   564     1 
  560   567     1 
  561   563     1 
  562   563     1 
  563   567     1 
  565   567     1 
  567   570     1 
  568   575     1 
  568   576     1 
  568   577     1 
  569   571     1 
  569   572     1 
  569   574     1 
  570   574     1 
  571   573     1 
  572   573     1 
  573   578     1 
  574   579     1 
  574   580     1 
  574   581     1 
  575   578     1 
  576   578     1 
  577   582     1 
  577   583     1 
  577   601     1 
  578   584     1 
  578   602     1 
  578   603     1 
  578   606     1 
  579   582     1 
  579   583     1 
  579   601     1 
  580   582     1 
  580   583     1 
  580   601     1 
  581   585     1 
  581   586     1 
  581   604     1 
  581   605     1 
  581   607     1 
  582   584     1 
  582   602     1 
  582   603     1 
  582   606     1 
  583   587     1 
  583   600     1 
  583   602     1 
  583   604     1 
  583   605     1 
  583   606     1 
  584   588     1 
  584   589     1 
  584   590     1 
  584   599     1 
  584   602     1 
  584   606     1 
  585   587     1 
  585   600     1 
  585   601     1 
  585   604     1 
  585   605     1 
  586   591     1 
  586   595     1 
  586   601     1 
  586   604     1 
  586   605     1 
  587   591     1 
  587   599     1 
  587   603     1 
  588   590     1 
  588   600     1 
  589   592     1 
  589   593     1 
  589   599     1 
  590   594     1 
  590   595     1 
  591   596     1 
  591   599     1 
  592   594     1 
  592   595     1 
  592   600     1 
  593   597     1 
  593   598     1 
  593   600     1 
  594   596     1 
  594   599     1 
  596   600     1 
  597   599     1 
  598   599     1 
  600   603     1 
  601   608     1 
  601   609     1 
  601   610     1 
  602   604     1 
  602   605     1 
  602   607     1 
  603   607     1 
  604   606     1 
  605   606     1 
  606   611     1 
  607   612     1 
  607   613     1 
  607   614     1 
  608   611     1 
  609   611     1 
  610   615     1 
  610   616     1 
  610   634     1 
  611   617     1 
  611   635     1 
  611   636     1 
  611   639     1 
  612   615     1 
  612   616     1 
  612   634     1 
  613   615     1 
  613   616     1 
  613   634     1 
  614   618     1 
  614   619     1 
  614   637     1 
  614   638     1 
  614   640     1 
  615   617     1 
  615   635     1 
  615   636     1 
  615   639     1 
  616   620     1 
  616   633     1 
  616   635     1 
  616   637     1 
  616   638     1 
  616   639     1 
  617   621     1 
  617   622     1 
  617   623     1 
  617   632     1 
  617   635     1 
  617   639     1 
  618   620     1 
  618   633     1 
  618   634     1 
  618   637     1 
  618   638     1 
  619   624     1 
  619   628     1 
  619   634     1 
  619   637     1 
  619   638     1 
  620   624     1 
  620   632     1 
  620   636     1 
  621   623     1 
  621   633     1 
  622   625     1 
  622   626     1 
  622   632     1 
  623   627     1 
  623   628     1 
  624   629     1 
  624   632     1 
  625   627     1 
  625   628     1 
  625   633     1 
  626   630     1 
  626   631     1 
  626   633     1 
  627   629     1 
  627   632     1 
  629   633     1 
  630   632     1 
  631   632     1 
  633   636     1 
  634   641     1 
  634   642     1 
  634   643     1 
  635   637     1 
  635   638     1 
  635   640     1 
  636   640     1 
  637   639     1 
  638   639     1 
  639   644     1 
  640   645     1 
  640   646     1 
  640   647     1 
  641   644     1 
  642   644     1 
  643   648     1 
  643   649     1 
  643   667     1 
  644   650     1 
  644   668     1 
  644   669     1 
  644   672     1 
  645   648     1 
  645   649     1 
  645   667     1 
  646   648     1 
  646   649     1 
  646   667     1 
  647   651     1 
  647   652     1 
  647   670     1 
  647   671     1 
  647   673     1 
  648   650     1 
  648   668     1 
  648   669     1 
  648   672     1 
  649   653     1 
  649   666     1 
  649   668     1 
  649   670     1 
  649   671     1 
  649   672     1 
  650   654     1 
  650   655     1 
  650   656     1 
  650   665     1 
  650   668     1 
  650   672     1 
  651   653     1 
  651   666     1 
  651   667     1 
  651   670     1 
  651   671     1 
  652   657     1 
  652   661     1 
  652   667     1 
  652   670     1 
  652   671     1 
  653   657     1 
  653   665     1 
  653   669     1 
  654   656     1 
  654   666     1 
  655   658     1 
  655   659     1 
  655   665     1 
  656   660     1 
  656   661     1 
  657   662     1 
  657   665     1 
  658   660     1 
  658   661     1 
  658   666     1 
  659   663     1 
  659   664     1 
  659   666     1 
  660   662     1 
  660   665     1 
  662   666     1 
  663   665     1 
  664   665     1 
  666   669     1 
  667   674     1 
  667   675     1 
  667   676     1 
  668   670     1 
  668   671     1 
  668   673     1 
  669   673     1 
  670   672     1 
  671   672     1 
  672   677     1 
  673   678     1 
  673   679     1 
  673   680     1 
  674   677     1 
  675   677     1 
  676   681     1 
  676   682     1 
  676   700     1 
  677   683     1 
  677   701     1 
  677   702     1 
  677   705     1 
  678   681     1 
  678   682     1 
  678   700     1 
  679   681     1 
  679   682     1 
  679   700     1 
  680   684     1 
  680   685     1 
  680   703     1 
  680   704     1 
  680   706     1 
  681   683     1 
  681   701     1 
  681   702     1 
  681   705     1 
  682   686     1 
  682   699     1 
  682   701     1 
  682   703     1 
  682   704     1 
  682   705     1 
  683   687     1 
  683   688     1 
  683   689     1 
  683   698     1 
  683   701     1 
  683   705     1 
  684   686     1 
  684   699     1 
  684   700     1 
  684   703     1 
  684   704     1 
  685   690     1 
  685   694     1 
  685   700     1 
  685   703     1 
  685   704     1 
  686   690     1 
  686   698     1 
  686   702     1 
  687   689     1 
  687   699     1 
  688   691     1 
  688   692     1 
  688   698     1 
  689   693     1 
  689   694     1 
  690   695     1 
  690   698     1 
  691   693     1 
  691   694     1 
  691   699     1 
  692   696     1 
  692   697     1 
  692   699     1 
  693   695     1 
  693   698     1 
  695   699     1 
  696   698     1 
  697   698     1 
  699   702     1 
  700   707     1 
  700   708     1 
  700   709     1 
  701   703     1 
  701   704     1 
  701   706     1 
  702   706     1 
  703   705     1 
  704   705     1 
  705   710     1 
  706   711     1 
  706   712     1 
  706   713     1 
  707   710     1 
  708   710     1 
  709   714     1 
  709   715     1 
  709   730     1 
  710   716     1 
  710   731     1 
  710   732     1 
  710   735     1 
  711   714     1 
  711   715     1 
  711   730     1 
  712   714     1 
  712   715     1 
  712   730     1 
  713   717     1 
  713   718     1 
  713   733     1 
  713   734     1 
  713   736     1 
  714   716     1 
  714   731     1 
  714   732     1 
  714   735     1 
  715   719     1 
  715   728     1 
  715   731     1 
  715   733     1 
  715   734     1 
  715   735     1 
  716   720     1 
  716   721     1 
  716   727     1 
  716   729     1 
  716   731     1 
  716   735     1 
  717   719     1 
  717   728     1 
  717   730     1 
  717   733     1 
  717   734     1 
  718   722     1 
  718   723     1 
  718   730     1 
  718   733     1 
  718   734     1 
  719   724     1 
  719   727     1 
  719   729     1 
  719   732     1 
  720   722     1 
  720   723     1 
  720   728     1 
  721   725     1 
  721   726     1 
  721   728     1 
  722   724     1 
  722   727     1 
  723   729     1 
  724   728     1 
  725   727     1 
  726   727     1 
  728   732     1 
  730   737     1 
  730   738     1 
  730   739     1 
  731   733     1 
  731   734     1 
  731   736     1 
  732   736     1 
  733   735     1 
  734   735     1 
  735   740     1 
  736   741     1 
  736   742     1 
  736   743     1 
  737   740     1 
  738   740     1 
  739   744     1 
  739   745     1 
  739   760     1 
  740   746     1 
  740   761     1 
  740   762     1 
  740   765     1 
  741   744     1 
  741   745     1 
  741   760     1 
  742   744     1 
  742   745     1 
  742   760     1 
  743   747     1 
  743   748     1 
  743   763     1 
  743   764     1 
  743   766     1 
  744   746     1 
  744   761     1 
  744   762     1 
  744   765     1 
  745   749     1 
  745   758     1 
  745   761     1 
  745   763     1 
  745   764     1 
  745   765     1 
  746   750     1 
  746   751     1 
  746   757     1 
  746   759     1 
  746   761     1 
  746   765     1 
  747   749     1 
  747   758     1 
  747   760     1 
  747   763     1 
  747   764     1 
  748   752     1 
  748   753     1 
  748   760     1 
  748   763     1 
  748   764     1 
  749   754     1 
  749   757     1 
  749   759     1 
  749   762     1 
  750   752     1 
  750   753     1 
  750   758     1 
  751   755     1 
  751   756     1 
  751   758     1 
  752   754     1 
  752   757     1 
  753   759     1 
  754   758     1 
  755   757     1 
  756   757     1 
  758   762     1 
  760   767     1 
  760   768     1 
  760   769     1 
  761   763     1 
  761   764     1 
  761   766     1 
  762   766     1 
  763   765     1 
  764   765     1 
  765   770     1 
  766   771     1 
  766   772     1 
  766   773     1 
  767   770     1 
  768   770     1 
  769   774     1 
  769   775     1 
  769   790     1 
  770   776     1 
  770   791     1 
  770   792     1 
  770   795     1 
  771   774     1 
  771   775     1 
  771   790     1 
  772   774     1 
  772   775     1 
  772   790     1 
  773   777     1 
  773   778     1 
  773   793     1 
  773   794     1 
  773   796     1 
  774   776     1 
  774   791     1 
  774   792     1 
  774   795     1 
  775   779     1 
  775   788     1 
  775   791     1 
  775   793     1 
  775   794     1 
  775   795     1 
  776   780     1 
  776   781     1 
  776   787     1 
  776   789     1 
  776   791     1 
  776   795     1 
  777   779     1 
  777   788     1 
  777   790     1 
  777   793     1 
  777   794     1 
  778   782     1 
  778   783     1 
  778   790     1 
  778   793     1 
  778   794     1 
  779   784     1 
  779   787     1 
  779   789     1 
  779   792     1 
  780   782     1 
  780   783     1 
  780   788     1 
  781   785     1 
  781   786     1 
  781   788     1 
  782   784     1 
  782   787     1 
  783   789     1 
  784   788     1 
  785   787     1 
  786   787     1 
  788   792     1 
  790   797     1 
  790   798     1 
  790   799     1 
  791   793     1 
  791   794     1 
  791   796     1 
  792   796     1 
  793   795     1 
  794   795     1 
  795   800     1 
  796   801     1 
  796   802     1 
  796   803     1 
  797   800     1 
  798   800     1 
  799   804     1 
  799   805     1 
  799   822     1 
  800   806     1 
  800   823     1 
  800   824     1 
  800   827     1 
  801   804     1 
  801   805     1 
  801   822     1 
  802   804     1 
  802   805     1 
  802   822     1 
  803   807     1 
  803   808     1 
  803   825     1 
  803   826     1 
  803   828     1 
  804   806     1 
  804   823     1 
  804   824     1 
  804   827     1 
  805   809     1 
  805   821     1 
  805   823     1 
  805   825     1 
  805   826     1 
  805   827     1 
  806   810     1 
  806   811     1 
  806   812     1 
  806   820     1 
  806   823     1 
  806   827     1 
  807   809     1 
  807   821     1 
  807   822     1 
  807   825     1 
  807   826     1 
  808   813     1 
  808   818     1 
  808   822     1 
  808   825     1 
  808   826     1 
  809   813     1 
  809   820     1 
  809   824     1 
  810   812     1 
  810   821     1 
  811   814     1 
  811   817     1 
  811   820     1 
  812   815     1 
  812   816     1 
  812   818     1 
  813   819     1 
  813   820     1 
  814   818     1 
  814   821     1 
  815   817     1 
  816   817     1 
  817   821     1 
  819   821     1 
  821   824     1 
  822   829     1 
  822   830     1 
  822   831     1 
  823   825     1 
  823   826     1 
  823   828     1 
  824   828     1 
  825   827     1 
  826   827     1 
  827   832     1 
  828   833     1 
  828   834     1 
  828   835     1 
  829   832     1 
  830   832     1 
  831   836     1 
  831   837     1 
  831   855     1 
  832   838     1 
  832   856     1 
  832   857     1 
  832   860     1 
  833   836     1 
  833   837     1 
  833   855     1 
  834   836     1 
  834   837     1 
  834   855     1 
  835   839     1 
  835   840     1 
  835   858     1 
  835   859     1 
  835   861     1 
  836   838     1 
  836   856     1 
  836   857     1 
  836   860     1 
  837   841     1 
  837   854     1 
  837   856     1 
  837   858     1 
  837   859     1 
  837   860     1 
  838   842     1 
  838   843     1 
  838   844     1 
  838   853     1 
  838   856     1 
  838   860     1 
  839   841     1 
  839   854     1 
  839   855     1 
  839   858     1 
  839   859     1 
  840   845     1 
  840   849     1 
  840   855     1 
  840   858     1 
  840   859     1 
  841   845     1 
  841   853     1 
  841   857     1 
  842   844     1 
  842   854     1 
  843   846     1 
  843   847     1 
  843   853     1 
  844   848     1 
  844   849     1 
  845   850     1 
  845   853     1 
  846   848     1 
  846   849     1 
  846   854     1 
  847   851     1 
  847   852     1 
  847   854     1 
  848   850     1 
  848   853     1 
  850   854     1 
  851   853     1 
  852   853     1 
  854   857     1 
  855   862     1 
  855   863     1 
  855   864     1 
  856   858     1 
  856   859     1 
  856   861     1 
  857   861     1 
  858   860     1 
  859   860     1 
  860   865     1 
  861   866     1 
  861   867     1 
  861   868     1 
  862   865     1 
  863   865     1 
  864   869     1 
  864   870     1 
  864   888     1 
  865   871     1 
  865   889     1 
  865   890     1 
  865   893     1 
  866   869     1 
  866   870     1 
  866   888     1 
  867   869     1 
  867   870     1 
  867   888     1 
  868   872     1 
  868   873     1 
  868   891     1 
  868   892     1 
  868   894     1 
  869   871     1 
  869   889     1 
  869   890     1 
  869   893     1 
  870   874     1 
  870   887     1 
  870   889     1 
  870   891     1 
  870   892     1 
  870   893     1 
  871   875     1 
  871   876     1 
  871   877     1 
  871   886     1 
  871   889     1 
  871   893     1 
  872   874     1 
  872   887     1 
  872   888     1 
  872   891     1 
  872   892     1 
  873   878     1 
  873   882     1 
  873   888     1 
  873   891     1 
  873   892     1 
  874   878     1 
  874   886     1 
  874   890     1 
  875   877     1 
  875   887     1 
  876   879     1 
  876   880     1 
  876   886     1 
  877   881     1 
  877   882     1 
  878   883     1 
  878   886     1 
  879   881     1 
  879   882     1 
  879   887     1 
  880   884     1 
  880   885     1 
  880   887     1 
  881   883     1 
  881   886     1 
  883   887     1 
  884   886     1 
  885   886     1 
  887   890     1 
  888   895     1 
  888   896     1 
  888   897     1 
  889   891     1 
  889   892     1 
  889   894     1 
  890   894     1 
  891   893     1 
  892   893     1 
  893   898     1 
  894   899     1 
  894   900     1 
  894   901     1 
  895   898     1 
  896   898     1 
  897   902     1 
  897   903     1 
  897   920     1 
  898   904     1 
  898   921     1 
  898   922     1 
  898   925     1 
  899   902     1 
  899   903     1 
  899   920     1 
  900   902     1 
  900   903     1 
  900   920     1 
  901   905     1 
  901   906     1 
  901   923     1 
  901   924     1 
  901   926     1 
  902   904     1 
  902   921     1 
  902   922     1 
  902   925     1 
  903   907     1 
  903   919     1 
  903   921     1 
  903   923     1 
  903   924     1 
  903   925     1 
  904   908     1 
  904   909     1 
  904   910     1 
  904   918     1 
  904   921     1 
  904   925     1 
  905   907     1 
  905   919     1 
  905   920     1 
  905   923     1 
  905   924     1 
  906   911     1 
  906   916     1 
  906   920     1 
  906   923     1 
  906   924     1 
  907   911     1 
  907   918     1 
  907   922     1 
  908   910     1 
  908   919     1 
  909   912     1 
  909   915     1 
  909   918     1 
  910   913     1 
  910   914     1 
  910   916     1 
  911   917     1 
  911   918     1 
  912   916     1 
  912   919     1 
  913   915     1 
  914   915     1 
  915   919     1 
  917   919     1 
  919   922     1 
  920   927     1 
  920   928     1 
  920   929     1 
  921   923     1 
  921   924     1 
  921   926     1 
  922   926     1 
  923   925     1 
  924   925     1 
  925   930     1 
  926   931     1 
  926   932     1 
  926   933     1 
  927   930     1 
  928   930     1 
  929   934     1 
  929   935     1 
  929   953     1 
  930   936     1 
  930   954     1 
  930   955     1 
  930   958     1 
  931   934     1 
  931   935     1 
  931   953     1 
  932   934     1 
  932   935     1 
  932   953     1 
  933   937     1 
  933   938     1 
  933   956     1 
  933   957     1 
  933   959     1 
  934   936     1 
  934   954     1 
  934   955     1 
  934   958     1 
  935   939     1 
  935   952     1 
  935   954     1 
  935   956     1 
  935   957     1 
  935   958     1 
  936   940     1 
  936   941     1 
  936   942     1 
  936   951     1 
  936   954     1 
  936   958     1 
  937   939     1 
  937   952     1 
  937   953     1 
  937   956     1 
  937   957     1 
  938   943     1 
  938   947     1 
  938   953     1 
  938   956     1 
  938   957     1 
  939   943     1 
  939   951     1 
  939   955     1 
  940   942     1 
  940   952     1 
  941   944     1 
  941   945     1 
  941   951     1 
  942   946     1 
  942   947     1 
  943   948     1 
  943   951     1 
  944   946     1 
  944   947     1 
  944   952     1 
  945   949     1 
  945   950     1 
  945   952     1 
  946   948     1 
  946   951     1 
  948   952     1 
  949   951     1 
  950   951     1 
  952   955     1 
  953   960     1 
  953   961     1 
  953   962     1 
  954   956     1 
  954   957     1 
  954   959     1 
  955   959     1 
  956   958     1 
  957   958     1 
  958   963     1 
  959   964     1 
  959   965     1 
  959   966     1 
  960   963     1 
  961   963     1 
  962   967     1 
  962   968     1 
  962   986     1 
  963   969     1 
  963   987     1 
  963   988     1 
  963   991     1 
  964   967     1 
  964   968     1 
  964   986     1 
  965   967     1 
  965   968     1 
  965   986     1 
  966   970     1 
  966   971     1 
  966   989     1 
  966   990     1 
  966   992     1 
  967   969     1 
  967   987     1 
  967   988     1 
  967   991     1 
  968   972     1 
  968   985     1 
  968   987     1 
  968   989     1 
  968   990     1 
  968   991     1 
  969   973     1 
  969   974     1 
  969   975     1 
  969   984     1 
  969   987     1 
  969   991     1 
  970   972     1 
  970   985     1 
  970   986     1 
  970   989     1 
  970   990     1 
  971   976     1 
  971   980     1 
  971   986     1 
  971   989     1 
  971   990     1 
  972   976     1 
  972   984     1 
  972   988     1 
  973   975     1 
  973   985     1 
  974   977     1 
  974   978     1 
  974   984     1 
  975   979     1 
  975   980     1 
  976   981     1 
  976   984     1 
  977   979     1 
  977   980     1 
  977   985     1 
  978   982     1 
  978   983     1 
  978   985     1 
  979   981     1 
  979   984     1 
  981   985     1 
  982   984     1 
  983   984     1 
  985   988     1 
  986   993     1 
  986   994     1 
  986   995     1 
  987   989     1 
  987   990     1 
  987   992     1 
  988   992     1 
  989   991     1 
  990   991     1 
  991   996     1 
  992   997     1 
  992   998     1 
  992   999     1 
  993   996     1 
  994   996     1 
  995  1000     1 
  995  1001     1 
  995  1019     1 
  996  1002     1 
  996  1020     1 
  996  1021     1 
  996  1024     1 
  997  1000     1 
  997  1001     1 
  997  1019     1 
  998  1000     1 
  998  1001     1 
  998  1019     1 
  999  1003     1 
  999  1004     1 
  999  1022     1 
  999  1023     1 
  999  1025     1 
 1000  1002     1 
 1000  1020     1 
 1000  1021     1 
 1000  1024     1 
 1001  1005     1 
 1001  1018     1 
 1001  1020     1 
 1001  1022     1 
 1001  1023     1 
 1001  1024     1 
 1002  1006     1 
 1002  1007     1 
 1002  1008     1 
 1002  1017     1 
 1002  1020     1 
 1002  1024     1 
 1003  1005     1 
 1003  1018     1 
 1003  1019     1 
 1003  1022     1 
 1003  1023     1 
 1004  1009     1 
 1004  1013     1 
 1004  1019     1 
 1004  1022     1 
 1004  1023     1 
 1005  1009     1 
 1005  1017     1 
 1005  1021     1 
 1006  1008     1 
 1006  1018     1 
 1007  1010     1 
 1007  1011     1 
 1007  1017     1 
 1008  1012     1 
 1008  1013     1 
 1009  1014     1 
 1009  1017     1 
 1010  1012     1 
 1010  1013     1 
 1010  1018     1 
 1011  1015     1 
 1011  1016     1 
 1011  1018     1 
 1012  1014     1 
 1012  1017     1 
 1014  1018     1 
 1015  1017     1 
 1016  1017     1 
 1018  1021     1 
 1019  1026     1 
 1019  1027     1 
 1019  1028     1 
 1020  1022     1 
 1020  1023     1 
 1020  1025     1 
 1021  1025     1 
 1022  1024     1 
 1023  1024     1 
 1024  1029     1 
 1025  1030     1 
 1025  1031     1 
 1025  1032     1 
 1026  1029     1 
 1027  1029     1 
 1028  1033     1 
 1028  1034     1 
 1028  1052     1 
 1029  1035     1 
 1029  1053     1 
 1029  1054     1 
 1029  1057     1 
 1030  1033     1 
 1030  1034     1 
 1030  1052     1 
 1031  1033     1 
 1031  1034     1 
 1031  1052     1 
 1032  1036     1 
 1032  1037     1 
 1032  1055     1 
 1032  1056     1 
 1032  1058     1 
 1033  1035     1 
 1033  1053     1 
 1033  1054     1 
 1033  1057     1 
 1034  1038     1 
 1034  1051     1 
 1034  1053     1 
 1034  1055     1 
 1034  1056     1 
 1034  1057     1 
 1035  1039     1 
 1035  1040     1 
 1035  1041     1 
 1035  1050     1 
 1035  1053     1 
 1035  1057     1 
 1036  1038     1 
 1036  1051     1 
 1036  1052     1 
 1036  1055     1 
 1036  1056     1 
 1037  1042     1 
 1037  1046     1 
 1037  1052     1 
 1037  1055     1 
 1037  1056     1 
 1038  1042     1 
 1038  1050     1 
 1038  1054     1 
 1039  1041     1 
 1039  1051     1 
 1040  1043     1 
 1040  1044     1 
 1040  1050     1 
 1041  1045     1 
 1041  1046     1 
 1042  1047     1 
 1042  1050     1 
 1043  1045     1 
 1043  1046     1 
 1043  1051     1 
 1044  1048     1 
 1044  1049     1 
 1044  1051     1 
 1045  1047     1 
 1045  1050     1 
 1047  1051     1 
 1048  1050     1 
 1049  1050     1 
 1051  1054     1 
 1052  1059     1 
 1052  1060     1 
 1052  1061     1 
 1053  1055     1 
 1053  1056     1 
 1053  1058     1 
 1054  1058     1 
 1055  1057     1 
 1056  1057     1 
 1057  1062     1 
 1058  1063     1 
 1058  1064     1 
 1058  1065     1 
 1059  1062     1 
 1060  1062     1 
 1061  1066     1 
 1061  1067     1 
 1061  1084     1 
 1062  1068     1 
 1062  1085     1 
 1062  1086     1 
 1062  1089     1 
 1063  1066     1 
 1063  1067     1 
 1063  1084     1 
 1064  1066     1 
 1064  1067     1 
 1064  1084     1 
 1065  1069     1 
 1065  1070     1 
 1065  1087     1 
 1065  1088     1 
 1065  1090     1 
 1066  1068     1 
 1066  1085     1 
 1066  1086     1 
 1066  1089     1 
 1067  1071     1 
 1067  1082     1 
 1067  1085     1 
 1067  1087     1 
 1067  1088     1 
 1067  1089     1 
 1068  1072     1 
 1068  1073     1 
 1068  1080     1 
 1068  1083     1 
 1068  1085     1 
 1068  1089     1 
 1069  1071     1 
 1069  1082     1 
 1069  1084     1 
 1069  1087     1 
 1069  1088     1 
 1070  1074     1 
 1070  1078     1 
 1070  1081     1 
 1070  1084     1 
 1070  1087     1 
 1070  1088     1 
 1071  1075     1 
 1071  1076     1 
 1071  1077     1 
 1071  1079     1 
 1071  1080     1 
 1071  1083     1 
 1071  1086     1 
 1072  1074     1 
 1072  1078     1 
 1072  1082     1 
 1073  1081     1 
 1073  1082     1 
 1074  1079     1 
 1074  1080     1 
 1075  1078     1 
 1076  1078     1 
 1077  1078     1 
 1078  1083     1 
 1079  1081     1 
 1079  1082     1 
 1081  1083     1 
 1082  1086     1 
 1084  1091     1 
 1084  1092     1 
 1084  1093     1 
 1085  1087     1 
 1085  1088     1 
 1085  1090     1 
 1086  1090     1 
 1087  1089     1 
 1088  1089     1 
 1089  1094     1 
 1090  1095     1 
 1090  1096     1 
 1090  1097     1 
 1091  1094     1 
 1092  1094     1 
 1093  1098     1 
 1093  1099     1 
 1093  1117     1 
 1094  1100     1 
 1094  1118     1 
 1094  1119     1 
 1094  1122     1 
 1095  1098     1 
 1095  1099     1 
 1095  1117     1 
 1096  1098     1 
 1096  1099     1 
 1096  1117     1 
 1097  1101     1 
 1097  1102     1 
 1097  1120     1 
 1097  1121     1 
 1097  1123     1 
 1098  1100     1 
 1098  1118     1 
 1098  1119     1 
 1098  1122     1 
 1099  1103     1 
 1099  1116     1 
 1099  1118     1 
 1099  1120     1 
 1099  1121     1 
 1099  1122     1 
 1100  1104     1 
 1100  1105     1 
 1100  1106     1 
 1100  1115     1 
 1100  1118     1 
 1100  1122     1 
 1101  1103     1 
 1101  1116     1 
 1101  1117     1 
 1101  1120     1 
 1101  1121     1 
 1102  1107     1 
 1102  1111     1 
 1102  1117     1 
 1102  1120     1 
 1102  1121     1 
 1103  1107     1 
 1103  1115     1 
 1103  1119     1 
 1104  1106     1 
 1104  1116     1 
 1105  1108     1 
 1105  1109     1 
 1105  1115     1 
 1106  1110     1 
 1106  1111     1 
 1107  1112     1 
 1107  1115     1 
 1108  1110     1 
 1108  1111     1 
 1108  1116     1 
 1109  1113     1 
 1109  1114     1 
 1109  1116     1 
 1110  1112     1 
 1110  1115     1 
 1112  1116     1 
 1113  1115     1 
 1114  1115     1 
 1116  1119     1 
 1117  1124     1 
 1117  1125     1 
 1117  1126     1 
 1118  1120     1 
 1118  1121     1 
 1118  1123     1 
 1119  1123     1 
 1120  1122     1 
 1121  1122     1 
 1122  1127     1 
 1123  1128     1 
 1123  1129     1 
 1123  1130     1 
 1124  1127     1 
 1125  1127     1 
 1126  1131     1 
 1126  1132     1 
 1126  1150     1 
 1127  1133     1 
 1127  1151     1 
 1127  1152     1 
 1127  1155     1 
 1128  1131     1 
 1128  1132     1 
 1128  1150     1 
 1129  1131     1 
 1129  1132     1 
 1129  1150     1 
 1130  1134     1 
 1130  1135     1 
 1130  1153     1 
 1130  1154     1 
 1130  1156     1 
 1131  1133     1 
 1131  1151     1 
 1131  1152     1 
 1131  1155     1 
 1132  1136     1 
 1132  1149     1 
 1132  1151     1 
 1132  1153     1 
 1132  1154     1 
 1132  1155     1 
 1133  1137     1 
 1133  1138     1 
 1133  1139     1 
 1133  1148     1 
 1133  1151     1 
 1133  1155     1 
 1134  1136     1 
 1134  1149     1 
 1134  1150     1 
 1134  1153     1 
 1134  1154     1 
 1135  1140     1 
 1135  1144     1 
 1135  1150     1 
 1135  1153     1 
 1135  1154     1 
 1136  1140     1 
 1136  1148     1 
 1136  1152     1 
 1137  1139     1 
 1137  1149     1 
 1138  1141     1 
 1138  1142     1 
 1138  1148     1 
 1139  1143     1 
 1139  1144     1 
 1140  1145     1 
 1140  1148     1 
 1141  1143     1 
 1141  1144     1 
 1141  1149     1 
 1142  1146     1 
 1142  1147     1 
 1142  1149     1 
 1143  1145     1 
 1143  1148     1 
 1145  1149     1 
 1146  1148     1 
 1147  1148     1 
 1149  1152     1 
 1150  1157     1 
 1150  1158     1 
 1150  1159     1 
 1151  1153     1 
 1151  1154     1 
 1151  1156     1 
 1152  1156     1 
 1153  1155     1 
 1154  1155     1 
 1155  1160     1 
 1156  1161     1 
 1156  1162     1 
 1156  1163     1 
 1157  1160     1 
 1158  1160     1 
 1159  1164     1 
 1159  1165     1 
 1159  1182     1 
 1160  1166     1 
 1160  1183     1 
 1160  1184     1 
 1160  1187     1 
 1161  1164     1 
 1161  1165     1 
 1161  1182     1 
 1162  1164     1 
 1162  1165     1 
 1162  1182     1 
 1163  1167     1 
 1163  1168     1 
 1163  1185     1 
 1163  1186     1 
 1163  1188     1 
 1164  1166     1 
 1164  1183     1 
 1164  1184     1 
 1164  1187     1 
 1165  1169     1 
 1165  1180     1 
 1165  1183     1 
 1165  1185     1 
 1165  1186     1 
 1165  1187     1 
 1166  1170     1 
 1166  1171     1 
 1166  1178     1 
 1166  1181     1 
 1166  1183     1 
 1166  1187     1 
 1167  1169     1 
 1167  1180     1 
 1167  1182     1 
 1167  1185     1 
 1167  1186     1 
 1168  1172     1 
 1168  1176     1 
 1168  1179     1 
 1168  1182     1 
 1168  1185     1 
 1168  1186     1 
 1169  1173     1 
 1169  1174     1 
 1169  1175     1 
 1169  1177     1 
 1169  1178     1 
 1169  1181     1 
 1169  1184     1 
 1170  1172     1 
 1170  1176     1 
 1170  1180     1 
 1171  1179     1 
 1171  1180     1 
 1172  1177     1 
 1172  1178     1 
 1173  1176     1 
 1174  1176     1 
 1175  1176     1 
 1176  1181     1 
 1177  1179     1 
 1177  1180     1 
 1179  1181     1 
 1180  1184     1 
 1182  1189     1 
 1182  1190     1 
 1182  1191     1 
 1183  1185     1 
 1183  1186     1 
 1183  1188     1 
 1184  1188     1 
 1185  1187     1 
 1186  1187     1 
 1187  1192     1 
 1188  1193     1 
 1188  1194     1 
 1188  1195     1 
 1189  1192     1 
 1190  1192     1 
 1191  1196     1 
 1191  1197     1 
 1191  1212     1 
 1192  1198     1 
 1192  1213     1 
 1192  1214     1 
 1192  1217     1 
 1193  1196     1 
 1193  1197     1 
 1193  1212     1 
 1194  1196     1 
 1194  1197     1 
 1194  1212     1 
 1195  1199     1 
 1195  1200     1 
 1195  1215     1 
 1195  1216     1 
 1195  1218     1 
 1196  1198     1 
 1196  1213     1 
 1196  1214     1 
 1196  1217     1 
 1197  1201     1 
 1197  1210     1 
 1197  1213     1 
 1197  1215     1 
 1197  1216     1 
 1197  1217     1 
 1198  1202     1 
 1198  1203     1 
 1198  1209     1 
 1198  1211     1 
 1198  1213     1 
 1198  1217     1 
 1199  1201     1 
 1199  1210     1 
 1199  1212     1 
 1199  1215     1 
 1199  1216     1 
 1200  1204     1 
 1200  1205     1 
 1200  1212     1 
 1200  1215     1 
 1200  1216     1 
 1201  1206     1 
 1201  1209     1 
 1201  1211     1 
 1201  1214     1 
 1202  1204     1 
 1202  1205     1 
 1202  1210     1 
 1203  1207     1 
 1203  1208     1 
 1203  1210     1 
 1204  1206     1 
 1204  1209     1 
 1205  1211     1 
 1206  1210     1 
 1207  1209     1 
 1208  1209     1 
 1210  1214     1 
 1212  1219     1 
 1212  1220     1 
 1212  1221     1 
 1213  1215     1 
 1213  1216     1 
 1213  1218     1 
 1214  1218     1 
 1215  1217     1 
 1216  1217     1 
 1217  1222     1 
 1218  1223     1 
 1218  1224     1 
 1218  1225     1 
 1219  1222     1 
 1220  1222     1 
 1221  1226     1 
 1221  1227     1 
 1221  1242     1 
 1222  1228     1 
 1222  1243     1 
 1222  1244     1 
 1222  1247     1 
 1223  1226     1 
 1223  1227     1 
 1223  1242     1 
 1224  1226     1 
 1224  1227     1 
 1224  1242     1 
 1225  1229     1 
 1225  1230     1 
 1225  1245     1 
 1225  1246     1 
 1225  1248     1 
 1226  1228     1 
 1226  1243     1 
 1226  1244     1 
 1226  1247     1 
 1227  1231     1 
 1227  1240     1 
 1227  1243     1 
 1227  1245     1 
 1227  1246     1 
 1227  1247     1 
 1228  1232     1 
 1228  1233     1 
 1228  1239     1 
 1228  1241     1 
 1228  1243     1 
 1228  1247     1 
 1229  1231     1 
 1229  1240     1 
 1229  1242     1 
 1229  1245     1 
 1229  1246     1 
 1230  1234     1 
 1230  1235     1 
 1230  1242     1 
 1230  1245     1 
 1230  1246     1 
 1231  1236     1 
 1231  1239     1 
 1231  1241     1 
 1231  1244     1 
 1232  1234     1 
 1232  1235     1 
 1232  1240     1 
 1233  1237     1 
 1233  1238     1 
 1233  1240     1 
 1234  1236     1 
 1234  1239     1 
 1235  1241     1 
 1236  1240     1 
 1237  1239     1 
 1238  1239     1 
 1240  1244     1 
 1242  1249     1 
 1242  1250     1 
 1242  1251     1 
 1243  1245     1 
 1243  1246     1 
 1243  1248     1 
 1244  1248     1 
 1245  1247     1 
 1246  1247     1 
 1247  1252     1 
 1248  1253     1 
 1248  1254     1 
 1248  1255     1 
 1249  1252     1 
 1250  1252     1 
 1251  1256     1 
 1251  1257     1 
 1251  1275     1 
 1252  1258     1 
 1252  1276     1 
 1252  1277     1 
 1252  1280     1 
 1253  1256     1 
 1253  1257     1 
 1253  1275     1 
 1254  1256     1 
 1254  1257     1 
 1254  1275     1 
 1255  1259     1 
 1255  1260     1 
 1255  1278     1 
 1255  1279     1 
 1255  1281     1 
 1256  1258     1 
 1256  1276     1 
 1256  1277     1 
 1256  1280     1 
 1257  1261     1 
 1257  1274     1 
 1257  1276     1 
 1257  1278     1 
 1257  1279     1 
 1257  1280     1 
 1258  1262     1 
 1258  1263     1 
 1258  1264     1 
 1258  1273     1 
 1258  1276     1 
 1258  1280     1 
 1259  1261     1 
 1259  1274     1 
 1259  1275     1 
 1259  1278     1 
 1259  1279     1 
 1260  1265     1 
 1260  1269     1 
 1260  1275     1 
 1260  1278     1 
 1260  1279     1 
 1261  1265     1 
 1261  1273     1 
 1261  1277     1 
 1262  1264     1 
 1262  1274     1 
 1263  1266     1 
 1263  1267     1 
 1263  1273     1 
 1264  1268     1 
 1264  1269     1 
 1265  1270     1 
 1265  1273     1 
 1266  1268     1 
 1266  1269     1 
 1266  1274     1 
 1267  1271     1 
 1267  1272     1 
 1267  1274     1 
 1268  1270     1 
 1268  1273     1 
 1270  1274     1 
 1271  1273     1 
 1272  1273     1 
 1274  1277     1 
 1275  1282     1 
 1275  1283     1 
 1275  1284     1 
 1276  1278     1 
 1276  1279     1 
 1276  1281     1 
 1277  1281     1 
 1278  1280     1 
 1279  1280     1 
 1280  1285     1 
 1281  1286     1 
 1281  1287     1 
 1281  1288     1 
 1282  1285     1 
 1283  1285     1 
 1284  1289     1 
 1284  1290     1 
 1284  1305     1 
 1285  1291     1 
 1285  1306     1 
 1285  1307     1 
 1285  1310     1 
 1286  1289     1 
 1286  1290     1 
 1286  1305     1 
 1287  1289     1 
 1287  1290     1 
 1287  1305     1 
 1288  1292     1 
 1288  1293     1 
 1288  1308     1 
 1288  1309     1 
 1288  1311     1 
 1289  1291     1 
 1289  1306     1 
 1289  1307     1 
 1289  1310     1 
 1290  1294     1 
 1290  1303     1 
 1290  1306     1 
 1290  1308     1 
 1290  1309     1 
 1290  1310     1 
 1291  1295     1 
 1291  1296     1 
 1291  1302     1 
 1291  1304     1 
 1291  1306     1 
 1291  1310     1 
 1292  1294     1 
 1292  1303     1 
 1292  1305     1 
 1292  1308     1 
 1292  1309     1 
 1293  1297     1 
 1293  1298     1 
 1293  1305     1 
 1293  1308     1 
 1293  1309     1 
 1294  1299     1 
 1294  1302     1 
 1294  1304     1 
 1294  1307     1 
 1295  1297     1 
 1295  1298     1 
 1295  1303     1 
 1296  1300     1 
 1296  1301     1 
 1296  1303     1 
 1297  1299     1 
 1297  1302     1 
 1298  1304     1 
 1299  1303     1 
 1300  1302     1 
 1301  1302     1 
 1303  1307     1 
 1305  1312     1 
 1305  1313     1 
 1305  1314     1 
 1306  1308     1 
 1306  1309     1 
 1306  1311     1 
 1307  1311     1 
 1308  1310     1 
 1309  1310     1 
 1310  1315     1 
 1311  1316     1 
 1311  1317     1 
 1311  1318     1 
 1312  1315     1 
 1313  1315     1 
 1314  1319     1 
 1314  1320     1 
 1314  1337     1 
 1315  1321     1 
 1315  1338     1 
 1315  1339     1 
 1315  1342     1 
 1316  1319     1 
 1316  1320     1 
 1316  1337     1 
 1317  1319     1 
 1317  1320     1 
 1317  1337     1 
 1318  1322     1 
 1318  1323     1 
 1318  1340     1 
 1318  1341     1 
 1318  1343     1 
 1319  1321     1 
 1319  1338     1 
 1319  1339     1 
 1319  1342     1 
 1320  1324     1 
 1320  1335     1 
 1320  1338     1 
 1320  1340     1 
 1320  1341     1 
 1320  1342     1 
 1321  1325     1 
 1321  1326     1 
 1321  1333     1 
 1321  1336     1 
 1321  1338     1 
 1321  1342     1 
 1322  1324     1 
 1322  1335     1 
 1322  1337     1 
 1322  1340     1 
 1322  1341     1 
 1323  1327     1 
 1323  1331     1 
 1323  1334     1 
 1323  1337     1 
 1323  1340     1 
 1323  1341     1 
 1324  1328     1 
 1324  1329     1 
 1324  1330     1 
 1324  1332     1 
 1324  1333     1 
 1324  1336     1 
 1324  1339     1 
 1325  1327     1 
 1325  1331     1 
 1325  1335     1 
 1326  1334     1 
 1326  1335     1 
 1327  1332     1 
 1327  1333     1 
 1328  1331     1 
 1329  1331     1 
 1330  1331     1 
 1331  1336     1 
 1332  1334     1 
 1332  1335     1 
 1334  1336     1 
 1335  1339     1 
 1337  1344     1 
 1337  1345     1 
 1337  1346     1 
 1338  1340     1 
 1338  1341     1 
 1338  1343     1 
 1339  1343     1 
 1340  1342     1 
 1341  1342     1 
 1342  1347     1 
 1343  1348     1 
 1343  1349     1 
 1343  1350     1 
 1344  1347     1 
 1345  1347     1 
 1346  1351     1 
 1346  1352     1 
 1346  1367     1 
 1347  1353     1 
 1347  1368     1 
 1347  1369     1 
 1347  1372     1 
 1348  1351     1 
 1348  1352     1 
 1348  1367     1 
 1349  1351     1 
 1349  1352     1 
 1349  1367     1 
 1350  1354     1 
 1350  1355     1 
 1350  1370     1 
 1350  1371     1 
 1350  1373     1 
 1351  1353     1 
 1351  1368     1 
 1351  1369     1 
 1351  1372     1 
 1352  1356     1 
 1352  1365     1 
 1352  1368     1 
 1352  1370     1 
 1352  1371     1 
 1352  1372     1 
 1353  1357     1 
 1353  1358     1 
 1353  1364     1 
 1353  1366     1 
 1353  1368     1 
 1353  1372     1 
 1354  1356     1 
 1354  1365     1 
 1354  1367     1 
 1354  1370     1 
 1354  1371     1 
 1355  1359     1 
 1355  1360     1 
 1355  1367     1 
 1355  1370     1 
 1355  1371     1 
 1356  1361     1 
 1356  1364     1 
 1356  1366     1 
 1356  1369     1 
 1357  1359     1 
 1357  1360     1 
 1357  1365     1 
 1358  1362     1 
 1358  1363     1 
 1358  1365     1 
 1359  1361     1 
 1359  1364     1 
 1360  1366     1 
 1361  1365     1 
 1362  1364     1 
 1363  1364     1 
 1365  1369     1 
 1367  1374     1 
 1367  1375     1 
 1367  1376     1 
 1368  1370     1 
 1368  1371     1 
 1368  1373     1 
 1369  1373     1 
 1370  1372     1 
 1371  1372     1 
 1372  1377     1 
 1373  1378     1 
 1373  1379     1 
 1373  1380     1 
 1374  1377     1 
 1375  1377     1 
 1376  1381     1 
 1376  1382     1 
 1376  1397     1 
 1377  1383     1 
 1377  1398     1 
 1377  1399     1 
 1377  1402     1 
 1378  1381     1 
 1378  1382     1 
 1378  1397     1 
 1379  1381     1 
 1379  1382     1 
 1379  1397     1 
 1380  1384     1 
 1380  1385     1 
 1380  1400     1 
 1380  1401     1 
 1380  1403     1 
 1381  1383     1 
 1381  1398     1 
 1381  1399     1 
 1381  1402     1 
 1382  1386     1 
 1382  1395     1 
 1382  1398     1 
 1382  1400     1 
 1382  1401     1 
 1382  1402     1 
 1383  1387     1 
 1383  1388     1 
 1383  1394     1 
 1383  1396     1 
 1383  1398     1 
 1383  1402     1 
 1384  1386     1 
 1384  1395     1 
 1384  1397     1 
 1384  1400     1 
 1384  1401     1 
 1385  1389     1 
 1385  1390     1 
 1385  1397     1 
 1385  1400     1 
 1385  1401     1 
 1386  1391     1 
 1386  1394     1 
 1386  1396     1 
 1386  1399     1 
 1387  1389     1 
 1387  1390     1 
 1387  1395     1 
 1388  1392     1 
 1388  1393     1 
 1388  1395     1 
 1389  1391     1 
 1389  1394     1 
 1390  1396     1 
 1391  1395     1 
 1392  1394     1 
 1393  1394     1 
 1395  1399     1 
 1397  1404     1 
 1397  1405     1 
 1397  1406     1 
 1398  1400     1 
 1398  1401     1 
 1398  1403     1 
 1399  1403     1 
 1400  1402     1 
 1401  1402     1 
 1402  1407     1 
 1403  1408     1 
 1403  1409     1 
 1403  1410     1 
 1404  1407     1 
 1405  1407     1 
 1406  1411     1 
 1406  1412     1 
 1406  1430     1 
 1407  1413     1 
 1407  1431     1 
 1407  1432     1 
 1407  1435     1 
 1408  1411     1 
 1408  1412     1 
 1408  1430     1 
 1409  1411     1 
 1409  1412     1 
 1409  1430     1 
 1410  1414     1 
 1410  1415     1 
 1410  1433     1 
 1410  1434     1 
 1410  1436     1 
 1411  1413     1 
 1411  1431     1 
 1411  1432     1 
 1411  1435     1 
 1412  1416     1 
 1412  1429     1 
 1412  1431     1 
 1412  1433     1 
 1412  1434     1 
 1412  1435     1 
 1413  1417     1 
 1413  1418     1 
 1413  1419     1 
 1413  1428     1 
 1413  1431     1 
 1413  1435     1 
 1414  1416     1 
 1414  1429     1 
 1414  1430     1 
 1414  1433     1 
 1414  1434     1 
 1415  1420     1 
 1415  1424     1 
 1415  1430     1 
 1415  1433     1 
 1415  1434     1 
 1416  1420     1 
 1416  1428     1 
 1416  1432     1 
 1417  1419     1 
 1417  1429     1 
 1418  1421     1 
 1418  1422     1 
 1418  1428     1 
 1419  1423     1 
 1419  1424     1 
 1420  1425     1 
 1420  1428     1 
 1421  1423     1 
 1421  1424     1 
 1421  1429     1 
 1422  1426     1 
 1422  1427     1 
 1422  1429     1 
 1423  1425     1 
 1423  1428     1 
 1425  1429     1 
 1426  1428     1 
 1427  1428     1 
 1429  1432     1 
 1430  1437     1 
 1430  1438     1 
 1430  1439     1 
 1431  1433     1 
 1431  1434     1 
 1431  1436     1 
 1432  1436     1 
 1433  1435     1 
 1434  1435     1 
 1435  1440     1 
 1436  1441     1 
 1436  1442     1 
 1436  1443     1 
 1437  1440     1 
 1438  1440     1 
 1439  1444     1 
 1439  1445     1 
 1439  1462     1 
 1440  1446     1 
 1440  1463     1 
 1440  1464     1 
 1440  1467     1 
 1441  1444     1 
 1441  1445     1 
 1441  1462     1 
 1442  1444     1 
 1442  1445     1 
 1442  1462     1 
 1443  1447     1 
 1443  1448     1 
 1443  1465     1 
 1443  1466     1 
 1443  1468     1 
 1444  1446     1 
 1444  1463     1 
 1444  1464     1 
 1444  1467     1 
 1445  1449     1 
 1445  1460     1 
 1445  1463     1 
 1445  1465     1 
 1445  1466     1 
 1445  1467     1 
 1446  1450     1 
 1446  1451     1 
 1446  1458     1 
 1446  1461     1 
 1446  1463     1 
 1446  1467     1 
 1447  1449     1 
 1447  1460     1 
 1447  1462     1 
 1447  1465     1 
 1447  1466     1 
 1448  1452     1 
 1448  1456     1 
 1448  1459     1 
 1448  1462     1 
 1448  1465     1 
 1448  1466     1 
 1449  1453     1 
 1449  1454     1 
 1449  1455     1 
 1449  1457     1 
 1449  1458     1 
 1449  1461     1 
 1449  1464     1 
 1450  1452     1 
 1450  1456     1 
 1450  1460     1 
 1451  1459     1 
 1451  1460     1 
 1452  1457     1 
 1452  1458     1 
 1453  1456     1 
 1454  1456     1 
 1455  1456     1 
 1456  1461     1 
 1457  1459     1 
 1457  1460     1 
 1459  1461     1 
 1460  1464     1 
 1462  1469     1 
 1462  1470     1 
 1462  1471     1 
 1463  1465     1 
 1463  1466     1 
 1463  1468     1 
 1464  1468     1 
 1465  1467     1 
 1466  1467     1 
 1467  1472     1 
 1468  1473     1 
 1468  1474     1 
 1468  1475     1 
 1469  1472     1 
 1470  1472     1 
 1471  1476     1 
 1471  1477     1 
 1471  1494     1 
 1472  1478     1 
 1472  1495     1 
 1472  1496     1 
 1472  1499     1 
 1473  1476     1 
 1473  1477     1 
 1473  1494     1 
 1474  1476     1 
 1474  1477     1 
 1474  1494     1 
 1475  1479     1 
 1475  1480     1 
 1475  1497     1 
 1475  1498     1 
 1475  1500     1 
 1476  1478     1 
 1476  1495     1 
 1476  1496     1 
 1476  1499     1 
 1477  1481     1 
 1477  1493     1 
 1477  1495     1 
 1477  1497     1 
 1477  1498     1 
 1477  1499     1 
 1478  1482     1 
 1478  1483     1 
 1478  1484     1 
 1478  1492     1 
 1478  1495     1 
 1478  1499     1 
 1479  1481     1 
 1479  1493     1 
 1479  1494     1 
 1479  1497     1 
 1479  1498     1 
 1480  1485     1 
 1480  1490     1 
 1480  1494     1 
 1480  1497     1 
 1480  1498     1 
 1481  1485     1 
 1481  1492     1 
 1481  1496     1 
 1482  1484     1 
 1482  1493     1 
 1483  1486     1 
 1483  1489     1 
 1483  1492     1 
 1484  1487     1 
 1484  1488     1 
 1484  1490     1 
 1485  1491     1 
 1485  1492     1 
 1486  1490     1 
 1486  1493     1 
 1487  1489     1 
 1488  1489     1 
 1489  1493     1 
 1491  1493     1 
 1493  1496     1 
 1494  1501     1 
 1494  1502     1 
 1494  1503     1 
 1495  1497     1 
 1495  1498     1 
 1495  1500     1 
 1496  1500     1 
 1497  1499     1 
 1498  1499     1 
 1499  1504     1 
 1500  1505     1 
 1500  1506     1 
 1500  1507     1 
 1501  1504     1 
 1502  1504     1 
 1503  1508     1 
 1503  1509     1 
 1503  1524     1 
 1504  1510     1 
 1504  1525     1 
 1504  1526     1 
 1504  1529     1 
 1505  1508     1 
 1505  1509     1 
 1505  1524     1 
 1506  1508     1 
 1506  1509     1 
 1506  1524     1 
 1507  1511     1 
 1507  1512     1 
 1507  1527     1 
 1507  1528     1 
 1507  1530     1 
 1508  1510     1 
 1508  1525     1 
 1508  1526     1 
 1508  1529     1 
 1509  1513     1 
 1509  1522     1 
 1509  1525     1 
 1509  1527     1 
 1509  1528     1 
 1509  1529     1 
 1510  1514     1 
 1510  1515     1 
 1510  1521     1 
 1510  1523     1 
 1510  1525     1 
 1510  1529     1 
 1511  1513     1 
 1511  1522     1 
 1511  1524     1 
 1511  1527     1 
 1511  1528     1 
 1512  1516     1 
 1512  1517     1 
 1512  1524     1 
 1512  1527     1 
 1512  1528     1 
 1513  1518     1 
 1513  1521     1 
 1513  1523     1 
 1513  1526     1 
 1514  1516     1 
 1514  1517     1 
 1514  1522     1 
 1515  1519     1 
 1515  1520     1 
 1515  1522     1 
 1516  1518     1 
 1516  1521     1 
 1517  1523     1 
 1518  1522     1 
 1519  1521     1 
 1520  1521     1 
 1522  1526     1 
 1524  1531     1 
 1524  1532     1 
 1524  1533     1 
 1525  1527     1 
 1525  1528     1 
 1525  1530     1 
 1526  1530     1 
 1527  1529     1 
 1528  1529     1 
 1529  1534     1 
 1530  1535     1 
 1530  1536     1 
 1530  1537     1 
 1531  1534     1 
 1532  1534     1 
 1533  1538     1 
 1533  1539     1 
 1533  1554     1 
 1534  1540     1 
 1534  1555     1 
 1534  1556     1 
 1534  1559     1 
 1535  1538     1 
 1535  1539     1 
 1535  1554     1 
 1536  1538     1 
 1536  1539     1 
 1536  1554     1 
 1537  1541     1 
 1537  1542     1 
 1537  1557     1 
 1537  1558     1 
 1537  1560     1 
 1538  1540     1 
 1538  1555     1 
 1538  1556     1 
 1538  1559     1 
 1539  1543     1 
 1539  1552     1 
 1539  1555     1 
 1539  1557     1 
 1539  1558     1 
 1539  1559     1 
 1540  1544     1 
 1540  1545     1 
 1540  1551     1 
 1540  1553     1 
 1540  1555     1 
 1540  1559     1 
 1541  1543     1 
 1541  1552     1 
 1541  1554     1 
 1541  1557     1 
 1541  1558     1 
 1542  1546     1 
 1542  1547     1 
 1542  1554     1 
 1542  1557     1 
 1542  1558     1 
 1543  1548     1 
 1543  1551     1 
 1543  1553     1 
 1543  1556     1 
 1544  1546     1 
 1544  1547     1 
 1544  1552     1 
 1545  1549     1 
 1545  1550     1 
 1545  1552     1 
 1546  1548     1 
 1546  1551     1 
 1547  1553     1 
 1548  1552     1 
 1549  1551     1 
 1550  1551     1 
 1552  1556     1 
 1554  1561     1 
 1554  1562     1 
 1554  1563     1 
 1555  1557     1 
 1555  1558     1 
 1555  1560     1 
 1556  1560     1 
 1557  1559     1 
 1558  1559     1 
 1559  1564     1 
 1560  1565     1 
 1560  1566     1 
 1560  1567     1 
 1561  1564     1 
 1562  1564     1 
 1563  1568     1 
 1563  1569     1 
 1563  1586     1 
 1564  1570     1 
 1564  1587     1 
 1564  1588     1 
 1564  1591     1 
 1565  1568     1 
 1565  1569     1 
 1565  1586     1 
 1566  1568     1 
 1566  1569     1 
 1566  1586     1 
 1567  1571     1 
 1567  1572     1 
 1567  1589     1 
 1567  1590     1 
 1567  1592     1 
 1568  1570     1 
 1568  1587     1 
 1568  1588     1 
 1568  1591     1 
 1569  1573     1 
 1569  1584     1 
 1569  1587     1 
 1569  1589     1 
 1569  1590     1 
 1569  1591     1 
 1570  1574     1 
 1570  1575     1 
 1570  1582     1 
 1570  1585     1 
 1570  1587     1 
 1570  1591     1 
 1571  1573     1 
 1571  1584     1 
 1571  1586     1 
 1571  1589     1 
 1571  1590     1 
 1572  1576     1 
 1572  1580     1 
 1572  1583     1 
 1572  1586     1 
 1572  1589     1 
 1572  1590     1 
 1573  1577     1 
 1573  1578     1 
 1573  1579     1 
 1573  1581     1 
 1573  1582     1 
 1573  1585     1 
 1573  1588     1 
 1574  1576     1 
 1574  1580     1 
 1574  1584     1 
 1575  1583     1 
 1575  1584     1 
 1576  1581     1 
 1576  1582     1 
 1577  1580     1 
 1578  1580     1 
 1579  1580     1 
 1580  1585     1 
 1581  1583     1 
 1581  1584     1 
 1583  1585     1 
 1584  1588     1 
 1586  1593     1 
 1586  1594     1 
 1586  1595     1 
 1587  1589     1 
 1587  1590     1 
 1587  1592     1 
 1588  1592     1 
 1589  1591     1 
 1590  1591     1 
 1591  1596     1 
 1592  1597     1 
 1592  1598     1 
 1592  1599     1 
 1593  1596     1 
 1594  1596     1 
 1595  1600     1 
 1595  1601     1 
 1595  1616     1 
 1596  1602     1 
 1596  1617     1 
 1596  1618     1 
 1596  1621     1 
 1597  1600     1 
 1597  1601     1 
 1597  1616     1 
 1598  1600     1 
 1598  1601     1 
 1598  1616     1 
 1599  1603     1 
 1599  1604     1 
 1599  1619     1 
 1599  1620     1 
 1599  1622     1 
 1600  1602     1 
 1600  1617     1 
 1600  1618     1 
 1600  1621     1 
 1601  1605     1 
 1601  1614     1 
 1601  1617     1 
 1601  1619     1 
 1601  1620     1 
 1601  1621     1 
 1602  1606     1 
 1602  1607     1 
 1602  1613     1 
 1602  1615     1 
 1602  1617     1 
 1602  1621     1 
 1603  1605     1 
 1603  1614     1 
 1603  1616     1 
 1603  1619     1 
 1603  1620     1 
 1604  1608     1 
 1604  1609     1 
 1604  1616     1 
 1604  1619     1 
 1604  1620     1 
 1605  1610     1 
 1605  1613     1 
 1605  1615     1 
 1605  1618     1 
 1606  1608     1 
 1606  1609     1 
 1606  1614     1 
 1607  1611     1 
 1607  1612     1 
 1607  1614     1 
 1608  1610     1 
 1608  1613     1 
 1609  1615     1 
 1610  1614     1 
 1611  1613     1 
 1612  1613     1 
 1614  1618     1 
 1616  1623     1 
 1616  1624     1 
 1616  1625     1 
 1617  1619     1 
 1617  1620     1 
 1617  1622     1 
 1618  1622     1 
 1619  1621     1 
 1620  1621     1 
 1621  1626     1 
 1622  1627     1 
 1622  1628     1 
 1622  1629     1 
 1623  1626     1 
 1624  1626     1 
 1625  1630     1 
 1625  1631     1 
 1625  1648     1 
 1626  1632     1 
 1626  1649     1 
 1626  1650     1 
 1626  1653     1 
 1627  1630     1 
 1627  1631     1 
 1627  1648     1 
 1628  1630     1 
 1628  1631     1 
 1628  1648     1 
 1629  1633     1 
 1629  1634     1 
 1629  1651     1 
 1629  1652     1 
 1629  1654     1 
 1630  1632     1 
 1630  1649     1 
 1630  1650     1 
 1630  1653     1 
 1631  1635     1 
 1631  1646     1 
 1631  1649     1 
 1631  1651     1 
 1631  1652     1 
 1631  1653     1 
 1632  1636     1 
 1632  1637     1 
 1632  1644     1 
 1632  1647     1 
 1632  1649     1 
 1632  1653     1 
 1633  1635     1 
 1633  1646     1 
 1633  1648     1 
 1633  1651     1 
 1633  1652     1 
 1634  1638     1 
 1634  1642     1 
 1634  1645     1 
 1634  1648     1 
 1634  1651     1 
 1634  1652     1 
 1635  1639     1 
 1635  1640     1 
 1635  1641     1 
 1635  1643     1 
 1635  1644     1 
 1635  1647     1 
 1635  1650     1 
 1636  1638     1 
 1636  1642     1 
 1636  1646     1 
 1637  1645     1 
 1637  1646     1 
 1638  1643     1 
 1638  1644     1 
 1639  1642     1 
 1640  1642     1 
 1641  1642     1 
 1642  1647     1 
 1643  1645     1 
 1643  1646     1 
 1645  1647     1 
 1646  1650     1 
 1648  1655     1 
 1648  1656     1 
 1648  1657     1 
 1649  1651     1 
 1649  1652     1 
 1649  1654     1 
 1650  1654     1 
 1651  1653     1 
 1652  1653     1 
 1653  1658     1 
 1654  1659     1 
 1654  1660     1 
 1654  1661     1 
 1655  1658     1 
 1656  1658     1 
 1657  1662     1 
 1657  1663     1 
 1657  1678     1 
 1658  1664     1 
 1658  1679     1 
 1658  1680     1 
 1658  1683     1 
 1659  1662     1 
 1659  1663     1 
 1659  1678     1 
 1660  1662     1 
 1660  1663     1 
 1660  1678     1 
 1661  1665     1 
 1661  1666     1 
 1661  1681     1 
 1661  1682     1 
 1661  1684     1 
 1662  1664     1 
 1662  1679     1 
 1662  1680     1 
 1662  1683     1 
 1663  1667     1 
 1663  1676     1 
 1663  1679     1 
 1663  1681     1 
 1663  1682     1 
 1663  1683     1 
 1664  1668     1 
 1664  1669     1 
 1664  1675     1 
 1664  1677     1 
 1664  1679     1 
 1664  1683     1 
 1665  1667     1 
 1665  1676     1 
 1665  1678     1 
 1665  1681     1 
 1665  1682     1 
 1666  1670     1 
 1666  1671     1 
 1666  1678     1 
 1666  1681     1 
 1666  1682     1 
 1667  1672     1 
 1667  1675     1 
 1667  1677     1 
 1667  1680     1 
 1668  1670     1 
 1668  1671     1 
 1668  1676     1 
 1669  1673     1 
 1669  1674     1 
 1669  1676     1 
 1670  1672     1 
 1670  1675     1 
 1671  1677     1 
 1672  1676     1 
 1673  1675     1 
 1674  1675     1 
 1676  1680     1 
 1678  1685     1 
 1678  1686     1 
 1678  1687     1 
 1679  1681     1 
 1679  1682     1 
 1679  1684     1 
 1680  1684     1 
 1681  1683     1 
 1682  1683     1 
 1683  1688     1 
 1684  1689     1 
 1684  1690     1 
 1684  1691     1 
 1685  1688     1 
 1686  1688     1 
 1687  1692     1 
 1687  1693     1 
 1687  1710     1 
 1688  1694     1 
 1688  1711     1 
 1688  1712     1 
 1688  1715     1 
 1689  1692     1 
 1689  1693     1 
 1689  1710     1 
 1690  1692     1 
 1690  1693     1 
 1690  1710     1 
 1691  1695     1 
 1691  1696     1 
 1691  1713     1 
 1691  1714     1 
 1691  1716     1 
 1692  1694     1 
 1692  1711     1 
 1692  1712     1 
 1692  1715     1 
 1693  1697     1 
 1693  1708     1 
 1693  1711     1 
 1693  1713     1 
 1693  1714     1 
 1693  1715     1 
 1694  1698     1 
 1694  1699     1 
 1694  1706     1 
 1694  1709     1 
 1694  1711     1 
 1694  1715     1 
 1695  1697     1 
 1695  1708     1 
 1695  1710     1 
 1695  1713     1 
 1695  1714     1 
 1696  1700     1 
 1696  1704     1 
 1696  1707     1 
 1696  1710     1 
 1696  1713     1 
 1696  1714     1 
 1697  1701     1 
 1697  1702     1 
 1697  1703     1 
 1697  1705     1 
 1697  1706     1 
 1697  1709     1 
 1697  1712     1 
 1698  1700     1 
 1698  1704     1 
 1698  1708     1 
 1699  1707     1 
 1699  1708     1 
 1700  1705     1 
 1700  1706     1 
 1701  1704     1 
 1702  1704     1 
 1703  1704     1 
 1704  1709     1 
 1705  1707     1 
 1705  1708     1 
 1707  1709     1 
 1708  1712     1 
 1710  1717     1 
 1710  1718     1 
 1710  1719     1 
 1711  1713     1 
 1711  1714     1 
 1711  1716     1 
 1712  1716     1 
 1713  1715     1 
 1714  1715     1 
 1715  1720     1 
 1716  1721     1 
 1716  1722     1 
 1716  1723     1 
 1717  1720     1 
 1718  1720     1 
 1719  1724     1 
 1719  1725     1 
 1719  1740     1 
 1720  1726     1 
 1720  1741     1 
 1720  1742     1 
 1720  1745     1 
 1721  1724     1 
 1721  1725     1 
 1721  1740     1 
 1722  1724     1 
 1722  1725     1 
 1722  1740     1 
 1723  1727     1 
 1723  1728     1 
 1723  1743     1 
 1723  1744     1 
 1723  1746     1 
 1724  1726     1 
 1724  1741     1 
 1724  1742     1 
 1724  1745     1 
 1725  1729     1 
 1725  1738     1 
 1725  1741     1 
 1725  1743     1 
 1725  1744     1 
 1725  1745     1 
 1726  1730     1 
 1726  1731     1 
 1726  1737     1 
 1726  1739     1 
 1726  1741     1 
 1726  1745     1 
 1727  1729     1 
 1727  1738     1 
 1727  1740     1 
 1727  1743     1 
 1727  1744     1 
 1728  1732     1 
 1728  1733     1 
 1728  1740     1 
 1728  1743     1 
 1728  1744     1 
 1729  1734     1 
 1729  1737     1 
 1729  1739     1 
 1729  1742     1 
 1730  1732     1 
 1730  1733     1 
 1730  1738     1 
 1731  1735     1 
 1731  1736     1 
 1731  1738     1 
 1732  1734     1 
 1732  1737     1 
 1733  1739     1 
 1734  1738     1 
 1735  1737     1 
 1736  1737     1 
 1738  1742     1 
 1740  1747     1 
 1740  1748     1 
 1740  1749     1 
 1741  1743     1 
 1741  1744     1 
 1741  1746     1 
 1742  1746     1 
 1743  1745     1 
 1744  1745     1 
 1745  1750     1 
 1746  1751     1 
 1746  1752     1 
 1746  1753     1 
 1747  1750     1 
 1748  1750     1 
 1749  1754     1 
 1749  1755     1 
 1749  1770     1 
 1750  1756     1 
 1750  1771     1 
 1750  1772     1 
 1750  1775     1 
 1751  1754     1 
 1751  1755     1 
 1751  1770     1 
 1752  1754     1 
 1752  1755     1 
 1752  1770     1 
 1753  1757     1 
 1753  1758     1 
 1753  1773     1 
 1753  1774     1 
 1753  1776     1 
 1754  1756     1 
 1754  1771     1 
 1754  1772     1 
 1754  1775     1 
 1755  1759     1 
 1755  1768     1 
 1755  1771     1 
 1755  1773     1 
 1755  1774     1 
 1755  1775     1 
 1756  1760     1 
 1756  1761     1 
 1756  1767     1 
 1756  1769     1 
 1756  1771     1 
 1756  1775     1 
 1757  1759     1 
 1757  1768     1 
 1757  1770     1 
 1757  1773     1 
 1757  1774     1 
 1758  1762     1 
 1758  1763     1 
 1758  1770     1 
 1758  1773     1 
 1758  1774     1 
 1759  1764     1 
 1759  1767     1 
 1759  1769     1 
 1759  1772     1 
 1760  1762     1 
 1760  1763     1 
 1760  1768     1 
 1761  1765     1 
 1761  1766     1 
 1761  1768     1 
 1762  1764     1 
 1762  1767     1 
 1763  1769     1 
 1764  1768     1 
 1765  1767     1 
 1766  1767     1 
 1768  1772     1 
 1770  1777     1 
 1770  1778     1 
 1770  1779     1 
 1771  1773     1 
 1771  1774     1 
 1771  1776     1 
 1772  1776     1 
 1773  1775     1 
 1774  1775     1 
 1775  1780     1 
 1776  1781     1 
 1776  1782     1 
 1776  1783     1 
 1777  1780     1 
 1778  1780     1 
 1779  1784     1 
 1779  1785     1 
 1779  1800     1 
 1780  1786     1 
 1780  1801     1 
 1780  1802     1 
 1780  1805     1 
 1781  1784     1 
 1781  1785     1 
 1781  1800     1 
 1782  1784     1 
 1782  1785     1 
 1782  1800     1 
 1783  1787     1 
 1783  1788     1 
 1783  1803     1 
 1783  1804     1 
 1783  1806     1 
 1784  1786     1 
 1784  1801     1 
 1784  1802     1 
 1784  1805     1 
 1785  1789     1 
 1785  1798     1 
 1785  1801     1 
 1785  1803     1 
 1785  1804     1 
 1785  1805     1 
 1786  1790     1 
 1786  1791     1 
 1786  1797     1 
 1786  1799     1 
 1786  1801     1 
 1786  1805     1 
 1787  1789     1 
 1787  1798     1 
 1787  1800     1 
 1787  1803     1 
 1787  1804     1 
 1788  1792     1 
 1788  1793     1 
 1788  1800     1 
 1788  1803     1 
 1788  1804     1 
 1789  1794     1 
 1789  1797     1 
 1789  1799     1 
 1789  1802     1 
 1790  1792     1 
 1790  1793     1 
 1790  1798     1 
 1791  1795     1 
 1791  1796     1 
 1791  1798     1 
 1792  1794     1 
 1792  1797     1 
 1793  1799     1 
 1794  1798     1 
 1795  1797     1 
 1796  1797     1 
 1798  1802     1 
 1800  1807     1 
 1800  1808     1 
 1800  1809     1 
 1801  1803     1 
 1801  1804     1 
 1801  1806     1 
 1802  1806     1 
 1803  1805     1 
 1804  1805     1 
 1805  1810     1 
 1806  1811     1 
 1806  1812     1 
 1806  1813     1 
 1807  1810     1 
 1808  1810     1 
 1809  1814     1 
 1809  1815     1 
 1809  1833     1 
 1810  1816     1 
 1810  1834     1 
 1810  1835     1 
 1810  1838     1 
 1811  1814     1 
 1811  1815     1 
 1811  1833     1 
 1812  1814     1 
 1812  1815     1 
 1812  1833     1 
 1813  1817     1 
 1813  1818     1 
 1813  1836     1 
 1813  1837     1 
 1813  1839     1 
 1814  1816     1 
 1814  1834     1 
 1814  1835     1 
 1814  1838     1 
 1815  1819     1 
 1815  1832     1 
 1815  1834     1 
 1815  1836     1 
 1815  1837     1 
 1815  1838     1 
 1816  1820     1 
 1816  1821     1 
 1816  1822     1 
 1816  1831     1 
 1816  1834     1 
 1816  1838     1 
 1817  1819     1 
 1817  1832     1 
 1817  1833     1 
 1817  1836     1 
 1817  1837     1 
 1818  1823     1 
 1818  1827     1 
 1818  1833     1 
 1818  1836     1 
 1818  1837     1 
 1819  1823     1 
 1819  1831     1 
 1819  1835     1 
 1820  1822     1 
 1820  1832     1 
 1821  1824     1 
 1821  1825     1 
 1821  1831     1 
 1822  1826     1 
 1822  1827     1 
 1823  1828     1 
 1823  1831     1 
 1824  1826     1 
 1824  1827     1 
 1824  1832     1 
 1825  1829     1 
 1825  1830     1 
 1825  1832     1 
 1826  1828     1 
 1826  1831     1 
 1828  1832     1 
 1829  1831     1 
 1830  1831     1 
 1832  1835     1 
 1833  1840     1 
 1833  1841     1 
 1833  1842     1 
 1834  1836     1 
 1834  1837     1 
 1834  1839     1 
 1835  1839     1 
 1836  1838     1 
 1837  1838     1 
 1838  1843     1 
 1839  1844     1 
 1839  1845     1 
 1839  1846     1 
 1840  1843     1 
 1841  1843     1 
 1842  1847     1 
 1842  1848     1 
 1842  1863     1 
 1843  1849     1 
 1843  1864     1 
 1843  1865     1 
 1843  1868     1 
 1844  1847     1 
 1844  1848     1 
 1844  1863     1 
 1845  1847     1 
 1845  1848     1 
 1845  1863     1 
 1846  1850     1 
 1846  1851     1 
 1846  1866     1 
 1846  1867     1 
 1846  1869     1 
 1847  1849     1 
 1847  1864     1 
 1847  1865     1 
 1847  1868     1 
 1848  1852     1 
 1848  1861     1 
 1848  1864     1 
 1848  1866     1 
 1848  1867     1 
 1848  1868     1 
 1849  1853     1 
 1849  1854     1 
 1849  1860     1 
 1849  1862     1 
 1849  1864     1 
 1849  1868     1 
 1850  1852     1 
 1850  1861     1 
 1850  1863     1 
 1850  1866     1 
 1850  1867     1 
 1851  1855     1 
 1851  1856     1 
 1851  1863     1 
 1851  1866     1 
 1851  1867     1 
 1852  1857     1 
 1852  1860     1 
 1852  1862     1 
 1852  1865     1 
 1853  1855     1 
 1853  1856     1 
 1853  1861     1 
 1854  1858     1 
 1854  1859     1 
 1854  1861     1 
 1855  1857     1 
 1855  1860     1 
 1856  1862     1 
 1857  1861     1 
 1858  1860     1 
 1859  1860     1 
 1861  1865     1 
 1863  1870     1 
 1863  1871     1 
 1863  1872     1 
 1864  1866     1 
 1864  1867     1 
 1864  1869     1 
 1865  1869     1 
 1866  1868     1 
 1867  1868     1 
 1868  1873     1 
 1869  1874     1 
 1869  1875     1 
 1869  1876     1 
 1870  1873     1 
 1871  1873     1 
 1872  1877     1 
 1872  1878     1 
 1872  1895     1 
 1873  1879     1 
 1873  1896     1 
 1873  1897     1 
 1873  1900     1 
 1874  1877     1 
 1874  1878     1 
 1874  1895     1 
 1875  1877     1 
 1875  1878     1 
 1875  1895     1 
 1876  1880     1 
 1876  1881     1 
 1876  1898     1 
 1876  1899     1 
 1876  1901     1 
 1877  1879     1 
 1877  1896     1 
 1877  1897     1 
 1877  1900     1 
 1878  1882     1 
 1878  1894     1 
 1878  1896     1 
 1878  1898     1 
 1878  1899     1 
 1878  1900     1 
 1879  1883     1 
 1879  1884     1 
 1879  1885     1 
 1879  1893     1 
 1879  1896     1 
 1879  1900     1 
 1880  1882     1 
 1880  1894     1 
 1880  1895     1 
 1880  1898     1 
 1880  1899     1 
 1881  1886     1 
 1881  1891     1 
 1881  1895     1 
 1881  1898     1 
 1881  1899     1 
 1882  1886     1 
 1882  1893     1 
 1882  1897     1 
 1883  1885     1 
 1883  1894     1 
 1884  1887     1 
 1884  1890     1 
 1884  1893     1 
 1885  1888     1 
 1885  1889     1 
 1885  1891     1 
 1886  1892     1 
 1886  1893     1 
 1887  1891     1 
 1887  1894     1 
 1888  1890     1 
 1889  1890     1 
 1890  1894     1 
 1892  1894     1 
 1894  1897     1 
 1895  1902     1 
 1895  1903     1 
 1895  1904     1 
 1896  1898     1 
 1896  1899     1 
 1896  1901     1 
 1897  1901     1 
 1898  1900     1 
 1899  1900     1 
 1900  1905     1 
 1901  1906     1 
 1901  1907     1 
 1901  1908     1 
 1902  1905     1 
 1903  1905     1 
 1904  1909     1 
 1904  1910     1 
 1904  1925     1 
 1905  1911     1 
 1905  1926     1 
 1905  1927     1 
 1905  1930     1 
 1906  1909     1 
 1906  1910     1 
 1906  1925     1 
 1907  1909     1 
 1907  1910     1 
 1907  1925     1 
 1908  1912     1 
 1908  1913     1 
 1908  1928     1 
 1908  1929     1 
 1908  1931     1 
 1909  1911     1 
 1909  1926     1 
 1909  1927     1 
 1909  1930     1 
 1910  1914     1 
 1910  1923     1 
 1910  1926     1 
 1910  1928     1 
 1910  1929     1 
 1910  1930     1 
 1911  1915     1 
 1911  1916     1 
 1911  1922     1 
 1911  1924     1 
 1911  1926     1 
 1911  1930     1 
 1912  1914     1 
 1912  1923     1 
 1912  1925     1 
 1912  1928     1 
 1912  1929     1 
 1913  1917     1 
 1913  1918     1 
 1913  1925     1 
 1913  1928     1 
 1913  1929     1 
 1914  1919     1 
 1914  1922     1 
 1914  1924     1 
 1914  1927     1 
 1915  1917     1 
 1915  1918     1 
 1915  1923     1 
 1916  1920     1 
 1916  1921     1 
 1916  1923     1 
 1917  1919     1 
 1917  1922     1 
 1918  1924     1 
 1919  1923     1 
 1920  1922     1 
 1921  1922     1 
 1923  1927     1 
 1925  1932     1 
 1925  1933     1 
 1925  1934     1 
 1926  1928     1 
 1926  1929     1 
 1926  1931     1 
 1927  1931     1 
 1928  1930     1 
 1929  1930     1 
 1930  1935     1 
 1931  1936     1 
 1931  1937     1 
 1931  1938     1 
 1932  1935     1 
 1933  1935     1 
 1934  1939     1 
 1934  1940     1 
 1934  1955     1 
 1935  1941     1 
 1935  1956     1 
 1935  1957     1 
 1935  1960     1 
 1936  1939     1 
 1936  1940     1 
 1936  1955     1 
 1937  1939     1 
 1937  1940     1 
 1937  1955     1 
 1938  1942     1 
 1938  1943     1 
 1938  1958     1 
 1938  1959     1 
 1938  1961     1 
 1939  1941     1 
 1939  1956     1 
 1939  1957     1 
 1939  1960     1 
 1940  1944     1 
 1940  1953     1 
 1940  1956     1 
 1940  1958     1 
 1940  1959     1 
 1940  1960     1 
 1941  1945     1 
 1941  1946     1 
 1941  1952     1 
 1941  1954     1 
 1941  1956     1 
 1941  1960     1 
 1942  1944     1 
 1942  1953     1 
 1942  1955     1 
 1942  1958     1 
 1942  1959     1 
 1943  1947     1 
 1943  1948     1 
 1943  1955     1 
 1943  1958     1 
 1943  1959     1 
 1944  1949     1 
 1944  1952     1 
 1944  1954     1 
 1944  1957     1 
 1945  1947     1 
 1945  1948     1 
 1945  1953     1 
 1946  1950     1 
 1946  1951     1 
 1946  1953     1 
 1947  1949     1 
 1947  1952     1 
 1948  1954     1 
 1949  1953     1 
 1950  1952     1 
 1951  1952     1 
 1953  1957     1 
 1955  1962     1 
 1955  1963     1 
 1955  1964     1 
 1956  1958     1 
 1956  1959     1 
 1956  1961     1 
 1957  1961     1 
 1958  1960     1 
 1959  1960     1 
 1960  1965     1 
 1961  1966     1 
 1961  1967     1 
 1961  1968     1 
 1962  1965     1 
 1963  1965     1 
 1964  1969     1 
 1964  1970     1 
 1964  1987     1 
 1965  1971     1 
 1965  1988     1 
 1965  1989     1 
 1965  1992     1 
 1966  1969     1 
 1966  1970     1 
 1966  1987     1 
 1967  1969     1 
 1967  1970     1 
 1967  1987     1 
 1968  1972     1 
 1968  1973     1 
 1968  1990     1 
 1968  1991     1 
 1968  1993     1 
 1969  1971     1 
 1969  1988     1 
 1969  1989     1 
 1969  1992     1 
 1970  1974     1 
 1970  1985     1 
 1970  1988     1 
 1970  1990     1 
 1970  1991     1 
 1970  1992     1 
 1971  1975     1 
 1971  1976     1 
 1971  1983     1 
 1971  1986     1 
 1971  1988     1 
 1971  1992     1 
 1972  1974     1 
 1972  1985     1 
 1972  1987     1 
 1972  1990     1 
 1972  1991     1 
 1973  1977     1 
 1973  1981     1 
 1973  1984     1 
 1973  1987     1 
 1973  1990     1 
 1973  1991     1 
 1974  1978     1 
 1974  1979     1 
 1974  1980     1 
 1974  1982     1 
 1974  1983     1 
 1974  1986     1 
 1974  1989     1 
 1975  1977     1 
 1975  1981     1 
 1975  1985     1 
 1976  1984     1 
 1976  1985     1 
 1977  1982     1 
 1977  1983     1 
 1978  1981     1 
 1979  1981     1 
 1980  1981     1 
 1981  1986     1 
 1982  1984     1 
 1982  1985     1 
 1984  1986     1 
 1985  1989     1 
 1987  1994     1 
 1987  1995     1 
 1987  1996     1 
 1988  1990     1 
 1988  1991     1 
 1988  1993     1 
 1989  1993     1 
 1990  1992     1 
 1991  1992     1 
 1992  1997     1 
 1993  1998     1 
 1993  1999     1 
 1993  2000     1 
 1994  1997     1 
 1995  1997     1 
 1996  2001     1 
 1996  2002     1 
 1996  2020     1 
 1997  2003     1 
 1997  2021     1 
 1997  2022     1 
 1997  2025     1 
 1998  2001     1 
 1998  2002     1 
 1998  2020     1 
 1999  2001     1 
 1999  2002     1 
 1999  2020     1 
 2000  2004     1 
 2000  2005     1 
 2000  2023     1 
 2000  2024     1 
 2000  2026     1 
 2001  2003     1 
 2001  2021     1 
 2001  2022     1 
 2001  2025     1 
 2002  2006     1 
 2002  2019     1 
 2002  2021     1 
 2002  2023     1 
 2002  2024     1 
 2002  2025     1 
 2003  2007     1 
 2003  2008     1 
 2003  2009     1 
 2003  2018     1 
 2003  2021     1 
 2003  2025     1 
 2004  2006     1 
 2004  2019     1 
 2004  2020     1 
 2004  2023     1 
 2004  2024     1 
 2005  2010     1 
 2005  2014     1 
 2005  2020     1 
 2005  2023     1 
 2005  2024     1 
 2006  2010     1 
 2006  2018     1 
 2006  2022     1 
 2007  2009     1 
 2007  2019     1 
 2008  2011     1 
 2008  2012     1 
 2008  2018     1 
 2009  2013     1 
 2009  2014     1 
 2010  2015     1 
 2010  2018     1 
 2011  2013     1 
 2011  2014     1 
 2011  2019     1 
 2012  2016     1 
 2012  2017     1 
 2012  2019     1 
 2013  2015     1 
 2013  2018     1 
 2015  2019     1 
 2016  2018     1 
 2017  2018     1 
 2019  2022     1 
 2020  2027     1 
 2020  2028     1 
 2020  2029     1 
 2021  2023     1 
 2021  2024     1 
 2021  2026     1 
 2022  2026     1 
 2023  2025     1 
 2024  2025     1 
 2025  2030     1 
 2026  2031     1 
 2026  2032     1 
 2026  2033     1 
 2027  2030     1 
 2028  2030     1 
 2029  2034     1 
 2029  2035     1 
 2029  2053     1 
 2030  2036     1 
 2030  2054     1 
 2030  2055     1 
 2030  2058     1 
 2031  2034     1 
 2031  2035     1 
 2031  2053     1 
 2032  2034     1 
 2032  2035     1 
 2032  2053     1 
 2033  2037     1 
 2033  2038     1 
 2033  2056     1 
 2033  2057     1 
 2033  2059     1 
 2034  2036     1 
 2034  2054     1 
 2034  2055     1 
 2034  2058     1 
 2035  2039     1 
 2035  2052     1 
 2035  2054     1 
 2035  2056     1 
 2035  2057     1 
 2035  2058     1 
 2036  2040     1 
 2036  2041     1 
 2036  2042     1 
 2036  2051     1 
 2036  2054     1 
 2036  2058     1 
 2037  2039     1 
 2037  2052     1 
 2037  2053     1 
 2037  2056     1 
 2037  2057     1 
 2038  2043     1 
 2038  2047     1 
 2038  2053     1 
 2038  2056     1 
 2038  2057     1 
 2039  2043     1 
 2039  2051     1 
 2039  2055     1 
 2040  2042     1 
 2040  2052     1 
 2041  2044     1 
 2041  2045     1 
 2041  2051     1 
 2042  2046     1 
 2042  2047     1 
 2043  2048     1 
 2043  2051     1 
 2044  2046     1 
 2044  2047     1 
 2044  2052     1 
 2045  2049     1 
 2045  2050     1 
 2045  2052     1 
 2046  2048     1 
 2046  2051     1 
 2048  2052     1 
 2049  2051     1 
 2050  2051     1 
 2052  2055     1 
 2053  2060     1 
 2053  2061     1 
 2053  2062     1 
 2054  2056     1 
 2054  2057     1 
 2054  2059     1 
 2055  2059     1 
 2056  2058     1 
 2057  2058     1 
 2058  2063     1 
 2059  2064     1 
 2059  2065     1 
 2059  2066     1 
 2060  2063     1 
 2061  2063     1 
 2062  2067     1 
 2062  2068     1 
 2062  2086     1 
 2063  2069     1 
 2063  2087     1 
 2063  2088     1 
 2063  2091     1 
 2064  2067     1 
 2064  2068     1 
 2064  2086     1 
 2065  2067     1 
 2065  2068     1 
 2065  2086     1 
 2066  2070     1 
 2066  2071     1 
 2066  2089     1 
 2066  2090     1 
 2066  2092     1 
 2067  2069     1 
 2067  2087     1 
 2067  2088     1 
 2067  2091     1 
 2068  2072     1 
 2068  2085     1 
 2068  2087     1 
 2068  2089     1 
 2068  2090     1 
 2068  2091     1 
 2069  2073     1 
 2069  2074     1 
 2069  2075     1 
 2069  2084     1 
 2069  2087     1 
 2069  2091     1 
 2070  2072     1 
 2070  2085     1 
 2070  2086     1 
 2070  2089     1 
 2070  2090     1 
 2071  2076     1 
 2071  2080     1 
 2071  2086     1 
 2071  2089     1 
 2071  2090     1 
 2072  2076     1 
 2072  2084     1 
 2072  2088     1 
 2073  2075     1 
 2073  2085     1 
 2074  2077     1 
 2074  2078     1 
 2074  2084     1 
 2075  2079     1 
 2075  2080     1 
 2076  2081     1 
 2076  2084     1 
 2077  2079     1 
 2077  2080     1 
 2077  2085     1 
 2078  2082     1 
 2078  2083     1 
 2078  2085     1 
 2079  2081     1 
 2079  2084     1 
 2081  2085     1 
 2082  2084     1 
 2083  2084     1 
 2085  2088     1 
 2086  2093     1 
 2086  2094     1 
 2086  2095     1 
 2087  2089     1 
 2087  2090     1 
 2087  2092     1 
 2088  2092     1 
 2089  2091     1 
 2090  2091     1 
 2091  2096     1 
 2092  2097     1 
 2092  2098     1 
 2092  2099     1 
 2093  2096     1 
 2094  2096     1 
 2095  2100     1 
 2095  2101     1 
 2095  2118     1 
 2096  2102     1 
 2096  2119     1 
 2096  2120     1 
 2096  2123     1 
 2097  2100     1 
 2097  2101     1 
 2097  2118     1 
 2098  2100     1 
 2098  2101     1 
 2098  2118     1 
 2099  2103     1 
 2099  2104     1 
 2099  2121     1 
 2099  2122     1 
 2099  2124     1 
 2100  2102     1 
 2100  2119     1 
 2100  2120     1 
 2100  2123     1 
 2101  2105     1 
 2101  2117     1 
 2101  2119     1 
 2101  2121     1 
 2101  2122     1 
 2101  2123     1 
 2102  2106     1 
 2102  2107     1 
 2102  2108     1 
 2102  2116     1 
 2102  2119     1 
 2102  2123     1 
 2103  2105     1 
 2103  2117     1 
 2103  2118     1 
 2103  2121     1 
 2103  2122     1 
 2104  2109     1 
 2104  2114     1 
 2104  2118     1 
 2104  2121     1 
 2104  2122     1 
 2105  2109     1 
 2105  2116     1 
 2105  2120     1 
 2106  2108     1 
 2106  2117     1 
 2107  2110     1 
 2107  2113     1 
 2107  2116     1 
 2108  2111     1 
 2108  2112     1 
 2108  2114     1 
 2109  2115     1 
 2109  2116     1 
 2110  2114     1 
 2110  2117     1 
 2111  2113     1 
 2112  2113     1 
 2113  2117     1 
 2115  2117     1 
 2117  2120     1 
 2118  2125     1 
 2118  2126     1 
 2118  2127     1 
 2119  2121     1 
 2119  2122     1 
 2119  2124     1 
 2120  2124     1 
 2121  2123     1 
 2122  2123     1 
 2123  2128     1 
 2124  2129     1 
 2124  2130     1 
 2124  2131     1 
 2125  2128     1 
 2126  2128     1 
 2127  2132     1 
 2127  2133     1 
 2127  2151     1 
 2128  2134     1 
 2128  2152     1 
 2128  2153     1 
 2128  2156     1 
 2129  2132     1 
 2129  2133     1 
 2129  2151     1 
 2130  2132     1 
 2130  2133     1 
 2130  2151     1 
 2131  2135     1 
 2131  2136     1 
 2131  2154     1 
 2131  2155     1 
 2131  2157     1 
 2132  2134     1 
 2132  2152     1 
 2132  2153     1 
 2132  2156     1 
 2133  2137     1 
 2133  2150     1 
 2133  2152     1 
 2133  2154     1 
 2133  2155     1 
 2133  2156     1 
 2134  2138     1 
 2134  2139     1 
 2134  2140     1 
 2134  2149     1 
 2134  2152     1 
 2134  2156     1 
 2135  2137     1 
 2135  2150     1 
 2135  2151     1 
 2135  2154     1 
 2135  2155     1 
 2136  2141     1 
 2136  2145     1 
 2136  2151     1 
 2136  2154     1 
 2136  2155     1 
 2137  2141     1 
 2137  2149     1 
 2137  2153     1 
 2138  2140     1 
 2138  2150     1 
 2139  2142     1 
 2139  2143     1 
 2139  2149     1 
 2140  2144     1 
 2140  2145     1 
 2141  2146     1 
 2141  2149     1 
 2142  2144     1 
 2142  2145     1 
 2142  2150     1 
 2143  2147     1 
 2143  2148     1 
 2143  2150     1 
 2144  2146     1 
 2144  2149     1 
 2146  2150     1 
 2147  2149     1 
 2148  2149     1 
 2150  2153     1 
 2151  2158     1 
 2151  2159     1 
 2151  2160     1 
 2152  2154     1 
 2152  2155     1 
 2152  2157     1 
 2153  2157     1 
 2154  2156     1 
 2155  2156     1 
 2156  2161     1 
 2157  2162     1 
 2157  2163     1 
 2157  2164     1 
 2158  2161     1 
 2159  2161     1 
 2160  2165     1 
 2160  2166     1 
 2160  2181     1 
 2161  2167     1 
 2161  2182     1 
 2161  2183     1 
 2161  2186     1 
 2162  2165     1 
 2162  2166     1 
 2162  2181     1 
 2163  2165     1 
 2163  2166     1 
 2163  2181     1 
 2164  2168     1 
 2164  2169     1 
 2164  2184     1 
 2164  2185     1 
 2164  2187     1 
 2165  2167     1 
 2165  2182     1 
 2165  2183     1 
 2165  2186     1 
 2166  2170     1 
 2166  2179     1 
 2166  2182     1 
 2166  2184     1 
 2166  2185     1 
 2166  2186     1 
 2167  2171     1 
 2167  2172     1 
 2167  2178     1 
 2167  2180     1 
 2167  2182     1 
 2167  2186     1 
 2168  2170     1 
 2168  2179     1 
 2168  2181     1 
 2168  2184     1 
 2168  2185     1 
 2169  2173     1 
 2169  2174     1 
 2169  2181     1 
 2169  2184     1 
 2169  2185     1 
 2170  2175     1 
 2170  2178     1 
 2170  2180     1 
 2170  2183     1 
 2171  2173     1 
 2171  2174     1 
 2171  2179     1 
 2172  2176     1 
 2172  2177     1 
 2172  2179     1 
 2173  2175     1 
 2173  2178     1 
 2174  2180     1 
 2175  2179     1 
 2176  2178     1 
 2177  2178     1 
 2179  2183     1 
 2181  2188     1 
 2181  2189     1 
 2181  2190     1 
 2182  2184     1 
 2182  2185     1 
 2182  2187     1 
 2183  2187     1 
 2184  2186     1 
 2185  2186     1 
 2186  2191     1 
 2187  2192     1 
 2187  2193     1 
 2187  2194     1 
 2188  2191     1 
 2189  2191     1 
 2190  2195     1 
 2190  2196     1 
 2190  2211     1 
 2191  2197     1 
 2191  2212     1 
 2191  2213     1 
 2191  2216     1 
 2192  2195     1 
 2192  2196     1 
 2192  2211     1 
 2193  2195     1 
 2193  2196     1 
 2193  2211     1 
 2194  2198     1 
 2194  2199     1 
 2194  2214     1 
 2194  2215     1 
 2194  2217     1 
 2195  2197     1 
 2195  2212     1 
 2195  2213     1 
 2195  2216     1 
 2196  2200     1 
 2196  2209     1 
 2196  2212     1 
 2196  2214     1 
 2196  2215     1 
 2196  2216     1 
 2197  2201     1 
 2197  2202     1 
 2197  2208     1 
 2197  2210     1 
 2197  2212     1 
 2197  2216     1 
 2198  2200     1 
 2198  2209     1 
 2198  2211     1 
 2198  2214     1 
 2198  2215     1 
 2199  2203     1 
 2199  2204     1 
 2199  2211     1 
 2199  2214     1 
 2199  2215     1 
 2200  2205     1 
 2200  2208     1 
 2200  2210     1 
 2200  2213     1 
 2201  2203     1 
 2201  2204     1 
 2201  2209     1 
 2202  2206     1 
 2202  2207     1 
 2202  2209     1 
 2203  2205     1 
 2203  2208     1 
 2204  2210     1 
 2205  2209     1 
 2206  2208     1 
 2207  2208     1 
 2209  2213     1 
 2211  2218     1 
 2211  2219     1 
 2211  2220     1 
 2212  2214     1 
 2212  2215     1 
 2212  2217     1 
 2213  2217     1 
 2214  2216     1 
 2215  2216     1 
 2216  2221     1 
 2217  2222     1 
 2217  2223     1 
 2217  2224     1 
 2218  2221     1 
 2219  2221     1 
 2220  2225     1 
 2220  2226     1 
 2220  2244     1 
 2221  2227     1 
 2221  2245     1 
 2221  2246     1 
 2221  2249     1 
 2222  2225     1 
 2222  2226     1 
 2222  2244     1 
 2223  2225     1 
 2223  2226     1 
 2223  2244     1 
 2224  2228     1 
 2224  2229     1 
 2224  2247     1 
 2224  2248     1 
 2224  2250     1 
 2225  2227     1 
 2225  2245     1 
 2225  2246     1 
 2225  2249     1 
 2226  2230     1 
 2226  2243     1 
 2226  2245     1 
 2226  2247     1 
 2226  2248     1 
 2226  2249     1 
 2227  2231     1 
 2227  2232     1 
 2227  2233     1 
 2227  2242     1 
 2227  2245     1 
 2227  2249     1 
 2228  2230     1 
 2228  2243     1 
 2228  2244     1 
 2228  2247     1 
 2228  2248     1 
 2229  2234     1 
 2229  2238     1 
 2229  2244     1 
 2229  2247     1 
 2229  2248     1 
 2230  2234     1 
 2230  2242     1 
 2230  2246     1 
 2231  2233     1 
 2231  2243     1 
 2232  2235     1 
 2232  2236     1 
 2232  2242     1 
 2233  2237     1 
 2233  2238     1 
 2234  2239     1 
 2234  2242     1 
 2235  2237     1 
 2235  2238     1 
 2235  2243     1 
 2236  2240     1 
 2236  2241     1 
 2236  2243     1 
 2237  2239     1 
 2237  2242     1 
 2239  2243     1 
 2240  2242     1 
 2241  2242     1 
 2243  2246     1 
 2244  2251     1 
 2244  2252     1 
 2244  2253     1 
 2245  2247     1 
 2245  2248     1 
 2245  2250     1 
 2246  2250     1 
 2247  2249     1 
 2248  2249     1 
 2249  2254     1 
 2250  2255     1 
 2250  2256     1 
 2250  2257     1 
 2251  2254     1 
 2252  2254     1 
 2253  2258     1 
 2253  2259     1 
 2253  2274     1 
 2254  2260     1 
 2254  2275     1 
 2254  2276     1 
 2254  2279     1 
 2255  2258     1 
 2255  2259     1 
 2255  2274     1 
 2256  2258     1 
 2256  2259     1 
 2256  2274     1 
 2257  2261     1 
 2257  2262     1 
 2257  2277     1 
 2257  2278     1 
 2257  2280     1 
 2258  2260     1 
 2258  2275     1 
 2258  2276     1 
 2258  2279     1 
 2259  2263     1 
 2259  2272     1 
 2259  2275     1 
 2259  2277     1 
 2259  2278     1 
 2259  2279     1 
 2260  2264     1 
 2260  2265     1 
 2260  2271     1 
 2260  2273     1 
 2260  2275     1 
 2260  2279     1 
 2261  2263     1 
 2261  2272     1 
 2261  2274     1 
 2261  2277     1 
 2261  2278     1 
 2262  2266     1 
 2262  2267     1 
 2262  2274     1 
 2262  2277     1 
 2262  2278     1 
 2263  2268     1 
 2263  2271     1 
 2263  2273     1 
 2263  2276     1 
 2264  2266     1 
 2264  2267     1 
 2264  2272     1 
 2265  2269     1 
 2265  2270     1 
 2265  2272     1 
 2266  2268     1 
 2266  2271     1 
 2267  2273     1 
 2268  2272     1 
 2269  2271     1 
 2270  2271     1 
 2272  2276     1 
 2274  2281     1 
 2274  2282     1 
 2274  2283     1 
 2275  2277     1 
 2275  2278     1 
 2275  2280     1 
 2276  2280     1 
 2277  2279     1 
 2278  2279     1 
 2279  2284     1 
 2280  2285     1 
 2280  2286     1 
 2280  2287     1 
 2281  2284     1 
 2282  2284     1 
 2283  2288     1 
 2283  2289     1 
 2283  2306     1 
 2284  2290     1 
 2284  2307     1 
 2284  2308     1 
 2284  2311     1 
 2285  2288     1 
 2285  2289     1 
 2285  2306     1 
 2286  2288     1 
 2286  2289     1 
 2286  2306     1 
 2287  2291     1 
 2287  2292     1 
 2287  2309     1 
 2287  2310     1 
 2287  2312     1 
 2288  2290     1 
 2288  2307     1 
 2288  2308     1 
 2288  2311     1 
 2289  2293     1 
 2289  2304     1 
 2289  2307     1 
 2289  2309     1 
 2289  2310     1 
 2289  2311     1 
 2290  2294     1 
 2290  2295     1 
 2290  2302     1 
 2290  2305     1 
 2290  2307     1 
 2290  2311     1 
 2291  2293     1 
 2291  2304     1 
 2291  2306     1 
 2291  2309     1 
 2291  2310     1 
 2292  2296     1 
 2292  2300     1 
 2292  2303     1 
 2292  2306     1 
 2292  2309     1 
 2292  2310     1 
 2293  2297     1 
 2293  2298     1 
 2293  2299     1 
 2293  2301     1 
 2293  2302     1 
 2293  2305     1 
 2293  2308     1 
 2294  2296     1 
 2294  2300     1 
 2294  2304     1 
 2295  2303     1 
 2295  2304     1 
 2296  2301     1 
 2296  2302     1 
 2297  2300     1 
 2298  2300     1 
 2299  2300     1 
 2300  2305     1 
 2301  2303     1 
 2301  2304     1 
 2303  2305     1 
 2304  2308     1 
 2306  2313     1 
 2306  2314     1 
 2306  2315     1 
 2307  2309     1 
 2307  2310     1 
 2307  2312     1 
 2308  2312     1 
 2309  2311     1 
 2310  2311     1 
 2311  2316     1 
 2312  2317     1 
 2312  2318     1 
 2312  2319     1 
 2313  2316     1 
 2314  2316     1 
 2315  2320     1 
 2315  2321     1 
 2315  2339     1 
 2316  2322     1 
 2316  2340     1 
 2316  2341     1 
 2316  2344     1 
 2317  2320     1 
 2317  2321     1 
 2317  2339     1 
 2318  2320     1 
 2318  2321     1 
 2318  2339     1 
 2319  2323     1 
 2319  2324     1 
 2319  2342     1 
 2319  2343     1 
 2319  2345     1 
 2320  2322     1 
 2320  2340     1 
 2320  2341     1 
 2320  2344     1 
 2321  2325     1 
 2321  2338     1 
 2321  2340     1 
 2321  2342     1 
 2321  2343     1 
 2321  2344     1 
 2322  2326     1 
 2322  2327     1 
 2322  2328     1 
 2322  2337     1 
 2322  2340     1 
 2322  2344     1 
 2323  2325     1 
 2323  2338     1 
 2323  2339     1 
 2323  2342     1 
 2323  2343     1 
 2324  2329     1 
 2324  2333     1 
 2324  2339     1 
 2324  2342     1 
 2324  2343     1 
 2325  2329     1 
 2325  2337     1 
 2325  2341     1 
 2326  2328     1 
 2326  2338     1 
 2327  2330     1 
 2327  2331     1 
 2327  2337     1 
 2328  2332     1 
 2328  2333     1 
 2329  2334     1 
 2329  2337     1 
 2330  2332     1 
 2330  2333     1 
 2330  2338     1 
 2331  2335     1 
 2331  2336     1 
 2331  2338     1 
 2332  2334     1 
 2332  2337     1 
 2334  2338     1 
 2335  2337     1 
 2336  2337     1 
 2338  2341     1 
 2339  2346     1 
 2339  2347     1 
 2339  2348     1 
 2340  2342     1 
 2340  2343     1 
 2340  2345     1 
 2341  2345     1 
 2342  2344     1 
 2343  2344     1 
 2344  2349     1 
 2345  2350     1 
 2345  2351     1 
 2345  2352     1 
 2346  2349     1 
 2347  2349     1 
 2348  2353     1 
 2348  2354     1 
 2348  2371     1 
 2349  2355     1 
 2349  2372     1 
 2349  2373     1 
 2349  2376     1 
 2350  2353     1 
 2350  2354     1 
 2350  2371     1 
 2351  2353     1 
 2351  2354     1 
 2351  2371     1 
 2352  2356     1 
 2352  2357     1 
 2352  2374     1 
 2352  2375     1 
 2352  2377     1 
 2353  2355     1 
 2353  2372     1 
 2353  2373     1 
 2353  2376     1 
 2354  2358     1 
 2354  2370     1 
 2354  2372     1 
 2354  2374     1 
 2354  2375     1 
 2354  2376     1 
 2355  2359     1 
 2355  2360     1 
 2355  2361     1 
 2355  2369     1 
 2355  2372     1 
 2355  2376     1 
 2356  2358     1 
 2356  2370     1 
 2356  2371     1 
 2356  2374     1 
 2356  2375     1 
 2357  2362     1 
 2357  2367     1 
 2357  2371     1 
 2357  2374     1 
 2357  2375     1 
 2358  2362     1 
 2358  2369     1 
 2358  2373     1 
 2359  2361     1 
 2359  2370     1 
 2360  2363     1 
 2360  2366     1 
 2360  2369     1 
 2361  2364     1 
 2361  2365     1 
 2361  2367     1 
 2362  2368     1 
 2362  2369     1 
 2363  2367     1 
 2363  2370     1 
 2364  2366     1 
 2365  2366     1 
 2366  2370     1 
 2368  2370     1 
 2370  2373     1 
 2371  2378     1 
 2371  2379     1 
 2371  2380     1 
 2372  2374     1 
 2372  2375     1 
 2372  2377     1 
 2373  2377     1 
 2374  2376     1 
 2375  2376     1 
 2376  2381     1 
 2377  2382     1 
 2377  2383     1 
 2377  2384     1 
 2378  2381     1 
 2379  2381     1 
 2380  2385     1 
 2380  2386     1 
 2380  2404     1 
 2381  2387     1 
 2381  2405     1 
 2381  2406     1 
 2381  2409     1 
 2382  2385     1 
 2382  2386     1 
 2382  2404     1 
 2383  2385     1 
 2383  2386     1 
 2383  2404     1 
 2384  2388     1 
 2384  2389     1 
 2384  2407     1 
 2384  2408     1 
 2384  2410     1 
 2385  2387     1 
 2385  2405     1 
 2385  2406     1 
 2385  2409     1 
 2386  2390     1 
 2386  2403     1 
 2386  2405     1 
 2386  2407     1 
 2386  2408     1 
 2386  2409     1 
 2387  2391     1 
 2387  2392     1 
 2387  2393     1 
 2387  2402     1 
 2387  2405     1 
 2387  2409     1 
 2388  2390     1 
 2388  2403     1 
 2388  2404     1 
 2388  2407     1 
 2388  2408     1 
 2389  2394     1 
 2389  2398     1 
 2389  2404     1 
 2389  2407     1 
 2389  2408     1 
 2390  2394     1 
 2390  2402     1 
 2390  2406     1 
 2391  2393     1 
 2391  2403     1 
 2392  2395     1 
 2392  2396     1 
 2392  2402     1 
 2393  2397     1 
 2393  2398     1 
 2394  2399     1 
 2394  2402     1 
 2395  2397     1 
 2395  2398     1 
 2395  2403     1 
 2396  2400     1 
 2396  2401     1 
 2396  2403     1 
 2397  2399     1 
 2397  2402     1 
 2399  2403     1 
 2400  2402     1 
 2401  2402     1 
 2403  2406     1 
 2404  2411     1 
 2404  2412     1 
 2404  2413     1 
 2405  2407     1 
 2405  2408     1 
 2405  2410     1 
 2406  2410     1 
 2407  2409     1 
 2408  2409     1 
 2409  2414     1 
 2410  2415     1 
 2410  2416     1 
 2410  2417     1 
 2411  2414     1 
 2412  2414     1 
 2413  2418     1 
 2413  2419     1 
 2413  2434     1 
 2414  2420     1 
 2414  2435     1 
 2414  2436     1 
 2414  2439     1 
 2415  2418     1 
 2415  2419     1 
 2415  2434     1 
 2416  2418     1 
 2416  2419     1 
 2416  2434     1 
 2417  2421     1 
 2417  2422     1 
 2417  2437     1 
 2417  2438     1 
 2417  2440     1 
 2418  2420     1 
 2418  2435     1 
 2418  2436     1 
 2418  2439     1 
 2419  2423     1 
 2419  2432     1 
 2419  2435     1 
 2419  2437     1 
 2419  2438     1 
 2419  2439     1 
 2420  2424     1 
 2420  2425     1 
 2420  2431     1 
 2420  2433     1 
 2420  2435     1 
 2420  2439     1 
 2421  2423     1 
 2421  2432     1 
 2421  2434     1 
 2421  2437     1 
 2421  2438     1 
 2422  2426     1 
 2422  2427     1 
 2422  2434     1 
 2422  2437     1 
 2422  2438     1 
 2423  2428     1 
 2423  2431     1 
 2423  2433     1 
 2423  2436     1 
 2424  2426     1 
 2424  2427     1 
 2424  2432     1 
 2425  2429     1 
 2425  2430     1 
 2425  2432     1 
 2426  2428     1 
 2426  2431     1 
 2427  2433     1 
 2428  2432     1 
 2429  2431     1 
 2430  2431     1 
 2432  2436     1 
 2434  2441     1 
 2434  2442     1 
 2434  2443     1 
 2435  2437     1 
 2435  2438     1 
 2435  2440     1 
 2436  2440     1 
 2437  2439     1 
 2438  2439     1 
 2439  2444     1 
 2440  2445     1 
 2440  2446     1 
 2440  2447     1 
 2441  2444     1 
 2442  2444     1 
 2443  2448     1 
 2443  2449     1 
 2443  2464     1 
 2444  2450     1 
 2444  2465     1 
 2444  2466     1 
 2444  2469     1 
 2445  2448     1 
 2445  2449     1 
 2445  2464     1 
 2446  2448     1 
 2446  2449     1 
 2446  2464     1 
 2447  2451     1 
 2447  2452     1 
 2447  2467     1 
 2447  2468     1 
 2447  2470     1 
 2448  2450     1 
 2448  2465     1 
 2448  2466     1 
 2448  2469     1 
 2449  2453     1 
 2449  2462     1 
 2449  2465     1 
 2449  2467     1 
 2449  2468     1 
 2449  2469     1 
 2450  2454     1 
 2450  2455     1 
 2450  2461     1 
 2450  2463     1 
 2450  2465     1 
 2450  2469     1 
 2451  2453     1 
 2451  2462     1 
 2451  2464     1 
 2451  2467     1 
 2451  2468     1 
 2452  2456     1 
 2452  2457     1 
 2452  2464     1 
 2452  2467     1 
 2452  2468     1 
 2453  2458     1 
 2453  2461     1 
 2453  2463     1 
 2453  2466     1 
 2454  2456     1 
 2454  2457     1 
 2454  2462     1 
 2455  2459     1 
 2455  2460     1 
 2455  2462     1 
 2456  2458     1 
 2456  2461     1 
 2457  2463     1 
 2458  2462     1 
 2459  2461     1 
 2460  2461     1 
 2462  2466     1 
 2464  2471     1 
 2464  2472     1 
 2464  2473     1 
 2465  2467     1 
 2465  2468     1 
 2465  2470     1 
 2466  2470     1 
 2467  2469     1 
 2468  2469     1 
 2469  2474     1 
 2470  2475     1 
 2470  2476     1 
 2470  2477     1 
 2471  2474     1 
 2472  2474     1 
 2473  2478     1 
 2473  2479     1 
 2473  2496     1 
 2474  2480     1 
 2474  2497     1 
 2474  2498     1 
 2474  2501     1 
 2475  2478     1 
 2475  2479     1 
 2475  2496     1 
 2476  2478     1 
 2476  2479     1 
 2476  2496     1 
 2477  2481     1 
 2477  2482     1 
 2477  2499     1 
 2477  2500     1 
 2477  2502     1 
 2478  2480     1 
 2478  2497     1 
 2478  2498     1 
 2478  2501     1 
 2479  2483     1 
 2479  2494     1 
 2479  2497     1 
 2479  2499     1 
 2479  2500     1 
 2479  2501     1 
 2480  2484     1 
 2480  2485     1 
 2480  2492     1 
 2480  2495     1 
 2480  2497     1 
 2480  2501     1 
 2481  2483     1 
 2481  2494     1 
 2481  2496     1 
 2481  2499     1 
 2481  2500     1 
 2482  2486     1 
 2482  2490     1 
 2482  2493     1 
 2482  2496     1 
 2482  2499     1 
 2482  2500     1 
 2483  2487     1 
 2483  2488     1 
 2483  2489     1 
 2483  2491     1 
 2483  2492     1 
 2483  2495     1 
 2483  2498     1 
 2484  2486     1 
 2484  2490     1 
 2484  2494     1 
 2485  2493     1 
 2485  2494     1 
 2486  2491     1 
 2486  2492     1 
 2487  2490     1 
 2488  2490     1 
 2489  2490     1 
 2490  2495     1 
 2491  2493     1 
 2491  2494     1 
 2493  2495     1 
 2494  2498     1 
 2496  2503     1 
 2496  2504     1 
 2496  2505     1 
 2497  2499     1 
 2497  2500     1 
 2497  2502     1 
 2498  2502     1 
 2499  2501     1 
 2500  2501     1 
 2501  2506     1 
 2502  2507     1 
 2502  2508     1 
 2502  2509     1 
 2503  2506     1 
 2504  2506     1 
 2505  2510     1 
 2505  2511     1 
 2505  2526     1 
 2506  2512     1 
 2506  2527     1 
 2506  2528     1 
 2506  2531     1 
 2507  2510     1 
 2507  2511     1 
 2507  2526     1 
 2508  2510     1 
 2508  2511     1 
 2508  2526     1 
 2509  2513     1 
 2509  2514     1 
 2509  2529     1 
 2509  2530     1 
 2509  2532     1 
 2510  2512     1 
 2510  2527     1 
 2510  2528     1 
 2510  2531     1 
 2511  2515     1 
 2511  2524     1 
 2511  2527     1 
 2511  2529     1 
 2511  2530     1 
 2511  2531     1 
 2512  2516     1 
 2512  2517     1 
 2512  2523     1 
 2512  2525     1 
 2512  2527     1 
 2512  2531     1 
 2513  2515     1 
 2513  2524     1 
 2513  2526     1 
 2513  2529     1 
 2513  2530     1 
 2514  2518     1 
 2514  2519     1 
 2514  2526     1 
 2514  2529     1 
 2514  2530     1 
 2515  2520     1 
 2515  2523     1 
 2515  2525     1 
 2515  2528     1 
 2516  2518     1 
 2516  2519     1 
 2516  2524     1 
 2517  2521     1 
 2517  2522     1 
 2517  2524     1 
 2518  2520     1 
 2518  2523     1 
 2519  2525     1 
 2520  2524     1 
 2521  2523     1 
 2522  2523     1 
 2524  2528     1 
 2526  2533     1 
 2526  2534     1 
 2526  2535     1 
 2527  2529     1 
 2527  2530     1 
 2527  2532     1 
 2528  2532     1 
 2529  2531     1 
 2530  2531     1 
 2531  2536     1 
 2532  2537     1 
 2532  2538     1 
 2532  2539     1 
 2533  2536     1 
 2534  2536     1 
 2535  2540     1 
 2535  2541     1 
 2535  2558     1 
 2536  2542     1 
 2536  2559     1 
 2536  2560     1 
 2536  2563     1 
 2537  2540     1 
 2537  2541     1 
 2537  2558     1 
 2538  2540     1 
 2538  2541     1 
 2538  2558     1 
 2539  2543     1 
 2539  2544     1 
 2539  2561     1 
 2539  2562     1 
 2539  2564     1 
 2540  2542     1 
 2540  2559     1 
 2540  2560     1 
 2540  2563     1 
 2541  2545     1 
 2541  2556     1 
 2541  2559     1 
 2541  2561     1 
 2541  2562     1 
 2541  2563     1 
 2542  2546     1 
 2542  2547     1 
 2542  2554     1 
 2542  2557     1 
 2542  2559     1 
 2542  2563     1 
 2543  2545     1 
 2543  2556     1 
 2543  2558     1 
 2543  2561     1 
 2543  2562     1 
 2544  2548     1 
 2544  2552     1 
 2544  2555     1 
 2544  2558     1 
 2544  2561     1 
 2544  2562     1 
 2545  2549     1 
 2545  2550     1 
 2545  2551     1 
 2545  2553     1 
 2545  2554     1 
 2545  2557     1 
 2545  2560     1 
 2546  2548     1 
 2546  2552     1 
 2546  2556     1 
 2547  2555     1 
 2547  2556     1 
 2548  2553     1 
 2548  2554     1 
 2549  2552     1 
 2550  2552     1 
 2551  2552     1 
 2552  2557     1 
 2553  2555     1 
 2553  2556     1 
 2555  2557     1 
 2556  2560     1 
 2558  2565     1 
 2558  2566     1 
 2558  2567     1 
 2559  2561     1 
 2559  2562     1 
 2559  2564     1 
 2560  2564     1 
 2561  2563     1 
 2562  2563     1 
 2563  2568     1 
 2564  2569     1 
 2564  2570     1 
 2564  2571     1 
 2565  2568     1 
 2566  2568     1 
 2567  2572     1 
 2567  2573     1 
 2567  2591     1 
 2568  2574     1 
 2568  2592     1 
 2568  2593     1 
 2568  2596     1 
 2569  2572     1 
 2569  2573     1 
 2569  2591     1 
 2570  2572     1 
 2570  2573     1 
 2570  2591     1 
 2571  2575     1 
 2571  2576     1 
 2571  2594     1 
 2571  2595     1 
 2571  2597     1 
 2572  2574     1 
 2572  2592     1 
 2572  2593     1 
 2572  2596     1 
 2573  2577     1 
 2573  2590     1 
 2573  2592     1 
 2573  2594     1 
 2573  2595     1 
 2573  2596     1 
 2574  2578     1 
 2574  2579     1 
 2574  2580     1 
 2574  2589     1 
 2574  2592     1 
 2574  2596     1 
 2575  2577     1 
 2575  2590     1 
 2575  2591     1 
 2575  2594     1 
 2575  2595     1 
 2576  2581     1 
 2576  2585     1 
 2576  2591     1 
 2576  2594     1 
 2576  2595     1 
 2577  2581     1 
 2577  2589     1 
 2577  2593     1 
 2578  2580     1 
 2578  2590     1 
 2579  2582     1 
 2579  2583     1 
 2579  2589     1 
 2580  2584     1 
 2580  2585     1 
 2581  2586     1 
 2581  2589     1 
 2582  2584     1 
 2582  2585     1 
 2582  2590     1 
 2583  2587     1 
 2583  2588     1 
 2583  2590     1 
 2584  2586     1 
 2584  2589     1 
 2586  2590     1 
 2587  2589     1 
 2588  2589     1 
 2590  2593     1 
 2591  2598     1 
 2591  2599     1 
 2591  2600     1 
 2592  2594     1 
 2592  2595     1 
 2592  2597     1 
 2593  2597     1 
 2594  2596     1 
 2595  2596     1 
 2596  2601     1 
 2597  2602     1 
 2597  2603     1 
 2597  2604     1 
 2598  2601     1 
 2599  2601     1 
 2600  2605     1 
 2600  2606     1 
 2600  2624     1 
 2601  2607     1 
 2601  2625     1 
 2601  2626     1 
 2601  2629     1 
 2602  2605     1 
 2602  2606     1 
 2602  2624     1 
 2603  2605     1 
 2603  2606     1 
 2603  2624     1 
 2604  2608     1 
 2604  2609     1 
 2604  2627     1 
 2604  2628     1 
 2604  2630     1 
 2605  2607     1 
 2605  2625     1 
 2605  2626     1 
 2605  2629     1 
 2606  2610     1 
 2606  2623     1 
 2606  2625     1 
 2606  2627     1 
 2606  2628     1 
 2606  2629     1 
 2607  2611     1 
 2607  2612     1 
 2607  2613     1 
 2607  2622     1 
 2607  2625     1 
 2607  2629     1 
 2608  2610     1 
 2608  2623     1 
 2608  2624     1 
 2608  2627     1 
 2608  2628     1 
 2609  2614     1 
 2609  2618     1 
 2609  2624     1 
 2609  2627     1 
 2609  2628     1 
 2610  2614     1 
 2610  2622     1 
 2610  2626     1 
 2611  2613     1 
 2611  2623     1 
 2612  2615     1 
 2612  2616     1 
 2612  2622     1 
 2613  2617     1 
 2613  2618     1 
 2614  2619     1 
 2614  2622     1 
 2615  2617     1 
 2615  2618     1 
 2615  2623     1 
 2616  2620     1 
 2616  2621     1 
 2616  2623     1 
 2617  2619     1 
 2617  2622     1 
 2619  2623     1 
 2620  2622     1 
 2621  2622     1 
 2623  2626     1 
 2624  2631     1 
 2624  2632     1 
 2624  2633     1 
 2625  2627     1 
 2625  2628     1 
 2625  2630     1 
 2626  2630     1 
 2627  2629     1 
 2628  2629     1 
 2629  2634     1 
 2630  2635     1 
 2630  2636     1 
 2630  2637     1 
 2631  2634     1 
 2632  2634     1 
 2633  2638     1 
 2633  2639     1 
 2633  2654     1 
 2634  2640     1 
 2634  2655     1 
 2634  2656     1 
 2634  2659     1 
 2635  2638     1 
 2635  2639     1 
 2635  2654     1 
 2636  2638     1 
 2636  2639     1 
 2636  2654     1 
 2637  2641     1 
 2637  2642     1 
 2637  2657     1 
 2637  2658     1 
 2637  2660     1 
 2638  2640     1 
 2638  2655     1 
 2638  2656     1 
 2638  2659     1 
 2639  2643     1 
 2639  2652     1 
 2639  2655     1 
 2639  2657     1 
 2639  2658     1 
 2639  2659     1 
 2640  2644     1 
 2640  2645     1 
 2640  2651     1 
 2640  2653     1 
 2640  2655     1 
 2640  2659     1 
 2641  2643     1 
 2641  2652     1 
 2641  2654     1 
 2641  2657     1 
 2641  2658     1 
 2642  2646     1 
 2642  2647     1 
 2642  2654     1 
 2642  2657     1 
 2642  2658     1 
 2643  2648     1 
 2643  2651     1 
 2643  2653     1 
 2643  2656     1 
 2644  2646     1 
 2644  2647     1 
 2644  2652     1 
 2645  2649     1 
 2645  2650     1 
 2645  2652     1 
 2646  2648     1 
 2646  2651     1 
 2647  2653     1 
 2648  2652     1 
 2649  2651     1 
 2650  2651     1 
 2652  2656     1 
 2654  2661     1 
 2654  2662     1 
 2654  2663     1 
 2655  2657     1 
 2655  2658     1 
 2655  2660     1 
 2656  2660     1 
 2657  2659     1 
 2658  2659     1 
 2659  2664     1 
 2660  2665     1 
 2660  2666     1 
 2660  2667     1 
 2661  2664     1 
 2662  2664     1 
 2663  2668     1 
 2663  2669     1 
 2663  2684     1 
 2664  2670     1 
 2664  2685     1 
 2664  2686     1 
 2664  2689     1 
 2665  2668     1 
 2665  2669     1 
 2665  2684     1 
 2666  2668     1 
 2666  2669     1 
 2666  2684     1 
 2667  2671     1 
 2667  2672     1 
 2667  2687     1 
 2667  2688     1 
 2667  2690     1 
 2668  2670     1 
 2668  2685     1 
 2668  2686     1 
 2668  2689     1 
 2669  2673     1 
 2669  2682     1 
 2669  2685     1 
 2669  2687     1 
 2669  2688     1 
 2669  2689     1 
 2670  2674     1 
 2670  2675     1 
 2670  2681     1 
 2670  2683     1 
 2670  2685     1 
 2670  2689     1 
 2671  2673     1 
 2671  2682     1 
 2671  2684     1 
 2671  2687     1 
 2671  2688     1 
 2672  2676     1 
 2672  2677     1 
 2672  2684     1 
 2672  2687     1 
 2672  2688     1 
 2673  2678     1 
 2673  2681     1 
 2673  2683     1 
 2673  2686     1 
 2674  2676     1 
 2674  2677     1 
 2674  2682     1 
 2675  2679     1 
 2675  2680     1 
 2675  2682     1 
 2676  2678     1 
 2676  2681     1 
 2677  2683     1 
 2678  2682     1 
 2679  2681     1 
 2680  2681     1 
 2682  2686     1 
 2684  2691     1 
 2684  2692     1 
 2684  2693     1 
 2685  2687     1 
 2685  2688     1 
 2685  2690     1 
 2686  2690     1 
 2687  2689     1 
 2688  2689     1 
 2689  2694     1 
 2690  2695     1 
 2690  2696     1 
 2690  2697     1 
 2691  2694     1 
 2692  2694     1 
 2693  2698     1 
 2693  2699     1 
 2693  2714     1 
 2694  2700     1 
 2694  2715     1 
 2694  2716     1 
 2694  2719     1 
 2695  2698     1 
 2695  2699     1 
 2695  2714     1 
 2696  2698     1 
 2696  2699     1 
 2696  2714     1 
 2697  2701     1 
 2697  2702     1 
 2697  2717     1 
 2697  2718     1 
 2697  2720     1 
 2698  2700     1 
 2698  2715     1 
 2698  2716     1 
 2698  2719     1 
 2699  2703     1 
 2699  2712     1 
 2699  2715     1 
 2699  2717     1 
 2699  2718     1 
 2699  2719     1 
 2700  2704     1 
 2700  2705     1 
 2700  2711     1 
 2700  2713     1 
 2700  2715     1 
 2700  2719     1 
 2701  2703     1 
 2701  2712     1 
 2701  2714     1 
 2701  2717     1 
 2701  2718     1 
 2702  2706     1 
 2702  2707     1 
 2702  2714     1 
 2702  2717     1 
 2702  2718     1 
 2703  2708     1 
 2703  2711     1 
 2703  2713     1 
 2703  2716     1 
 2704  2706     1 
 2704  2707     1 
 2704  2712     1 
 2705  2709     1 
 2705  2710     1 
 2705  2712     1 
 2706  2708     1 
 2706  2711     1 
 2707  2713     1 
 2708  2712     1 
 2709  2711     1 
 2710  2711     1 
 2712  2716     1 
 2714  2721     1 
 2714  2722     1 
 2714  2723     1 
 2715  2717     1 
 2715  2718     1 
 2715  2720     1 
 2716  2720     1 
 2717  2719     1 
 2718  2719     1 
 2719  2724     1 
 2720  2725     1 
 2720  2726     1 
 2720  2727     1 
 2721  2724     1 
 2722  2724     1 
 2723  2728     1 
 2723  2729     1 
 2723  2744     1 
 2724  2730     1 
 2724  2745     1 
 2724  2746     1 
 2724  2749     1 
 2725  2728     1 
 2725  2729     1 
 2725  2744     1 
 2726  2728     1 
 2726  2729     1 
 2726  2744     1 
 2727  2731     1 
 2727  2732     1 
 2727  2747     1 
 2727  2748     1 
 2727  2750     1 
 2728  2730     1 
 2728  2745     1 
 2728  2746     1 
 2728  2749     1 
 2729  2733     1 
 2729  2742     1 
 2729  2745     1 
 2729  2747     1 
 2729  2748     1 
 2729  2749     1 
 2730  2734     1 
 2730  2735     1 
 2730  2741     1 
 2730  2743     1 
 2730  2745     1 
 2730  2749     1 
 2731  2733     1 
 2731  2742     1 
 2731  2744     1 
 2731  2747     1 
 2731  2748     1 
 2732  2736     1 
 2732  2737     1 
 2732  2744     1 
 2732  2747     1 
 2732  2748     1 
 2733  2738     1 
 2733  2741     1 
 2733  2743     1 
 2733  2746     1 
 2734  2736     1 
 2734  2737     1 
 2734  2742     1 
 2735  2739     1 
 2735  2740     1 
 2735  2742     1 
 2736  2738     1 
 2736  2741     1 
 2737  2743     1 
 2738  2742     1 
 2739  2741     1 
 2740  2741     1 
 2742  2746     1 
 2744  2751     1 
 2744  2752     1 
 2744  2753     1 
 2745  2747     1 
 2745  2748     1 
 2745  2750     1 
 2746  2750     1 
 2747  2749     1 
 2748  2749     1 
 2749  2754     1 
 2750  2755     1 
 2750  2756     1 
 2750  2757     1 
 2751  2754     1 
 2752  2754     1 
 2753  2758     1 
 2753  2759     1 
 2753  2777     1 
 2754  2760     1 
 2754  2778     1 
 2754  2779     1 
 2754  2782     1 
 2755  2758     1 
 2755  2759     1 
 2755  2777     1 
 2756  2758     1 
 2756  2759     1 
 2756  2777     1 
 2757  2761     1 
 2757  2762     1 
 2757  2780     1 
 2757  2781     1 
 2757  2783     1 
 2758  2760     1 
 2758  2778     1 
 2758  2779     1 
 2758  2782     1 
 2759  2763     1 
 2759  2776     1 
 2759  2778     1 
 2759  2780     1 
 2759  2781     1 
 2759  2782     1 
 2760  2764     1 
 2760  2765     1 
 2760  2766     1 
 2760  2775     1 
 2760  2778     1 
 2760  2782     1 
 2761  2763     1 
 2761  2776     1 
 2761  2777     1 
 2761  2780     1 
 2761  2781     1 
 2762  2767     1 
 2762  2771     1 
 2762  2777     1 
 2762  2780     1 
 2762  2781     1 
 2763  2767     1 
 2763  2775     1 
 2763  2779     1 
 2764  2766     1 
 2764  2776     1 
 2765  2768     1 
 2765  2769     1 
 2765  2775     1 
 2766  2770     1 
 2766  2771     1 
 2767  2772     1 
 2767  2775     1 
 2768  2770     1 
 2768  2771     1 
 2768  2776     1 
 2769  2773     1 
 2769  2774     1 
 2769  2776     1 
 2770  2772     1 
 2770  2775     1 
 2772  2776     1 
 2773  2775     1 
 2774  2775     1 
 2776  2779     1 
 2777  2784     1 
 2777  2785     1 
 2777  2786     1 
 2778  2780     1 
 2778  2781     1 
 2778  2783     1 
 2779  2783     1 
 2780  2782     1 
 2781  2782     1 
 2782  2787     1 
 2783  2788     1 
 2783  2789     1 
 2783  2790     1 
 2784  2787     1 
 2785  2787     1 
 2786  2791     1 
 2786  2792     1 
 2786  2807     1 
 2787  2793     1 
 2787  2808     1 
 2787  2809     1 
 2787  2812     1 
 2788  2791     1 
 2788  2792     1 
 2788  2807     1 
 2789  2791     1 
 2789  2792     1 
 2789  2807     1 
 2790  2794     1 
 2790  2795     1 
 2790  2810     1 
 2790  2811     1 
 2790  2813     1 
 2791  2793     1 
 2791  2808     1 
 2791  2809     1 
 2791  2812     1 
 2792  2796     1 
 2792  2805     1 
 2792  2808     1 
 2792  2810     1 
 2792  2811     1 
 2792  2812     1 
 2793  2797     1 
 2793  2798     1 
 2793  2804     1 
 2793  2806     1 
 2793  2808     1 
 2793  2812     1 
 2794  2796     1 
 2794  2805     1 
 2794  2807     1 
 2794  2810     1 
 2794  2811     1 
 2795  2799     1 
 2795  2800     1 
 2795  2807     1 
 2795  2810     1 
 2795  2811     1 
 2796  2801     1 
 2796  2804     1 
 2796  2806     1 
 2796  2809     1 
 2797  2799     1 
 2797  2800     1 
 2797  2805     1 
 2798  2802     1 
 2798  2803     1 
 2798  2805     1 
 2799  2801     1 
 2799  2804     1 
 2800  2806     1 
 2801  2805     1 
 2802  2804     1 
 2803  2804     1 
 2805  2809     1 
 2807  2814     1 
 2807  2815     1 
 2807  2816     1 
 2808  2810     1 
 2808  2811     1 
 2808  2813     1 
 2809  2813     1 
 2810  2812     1 
 2811  2812     1 
 2812  2817     1 
 2813  2818     1 
 2813  2819     1 
 2813  2820     1 
 2814  2817     1 
 2815  2817     1 
 2816  2821     1 
 2816  2822     1 
 2816  2837     1 
 2817  2823     1 
 2817  2838     1 
 2817  2839     1 
 2817  2842     1 
 2818  2821     1 
 2818  2822     1 
 2818  2837     1 
 2819  2821     1 
 2819  2822     1 
 2819  2837     1 
 2820  2824     1 
 2820  2825     1 
 2820  2840     1 
 2820  2841     1 
 2820  2843     1 
 2821  2823     1 
 2821  2838     1 
 2821  2839     1 
 2821  2842     1 
 2822  2826     1 
 2822  2835     1 
 2822  2838     1 
 2822  2840     1 
 2822  2841     1 
 2822  2842     1 
 2823  2827     1 
 2823  2828     1 
 2823  2834     1 
 2823  2836     1 
 2823  2838     1 
 2823  2842     1 
 2824  2826     1 
 2824  2835     1 
 2824  2837     1 
 2824  2840     1 
 2824  2841     1 
 2825  2829     1 
 2825  2830     1 
 2825  2837     1 
 2825  2840     1 
 2825  2841     1 
 2826  2831     1 
 2826  2834     1 
 2826  2836     1 
 2826  2839     1 
 2827  2829     1 
 2827  2830     1 
 2827  2835     1 
 2828  2832     1 
 2828  2833     1 
 2828  2835     1 
 2829  2831     1 
 2829  2834     1 
 2830  2836     1 
 2831  2835     1 
 2832  2834     1 
 2833  2834     1 
 2835  2839     1 
 2837  2844     1 
 2837  2845     1 
 2837  2846     1 
 2838  2840     1 
 2838  2841     1 
 2838  2843     1 
 2839  2843     1 
 2840  2842     1 
 2841  2842     1 
 2842  2847     1 
 2843  2848     1 
 2843  2849     1 
 2843  2850     1 
 2844  2847     1 
 2845  2847     1 
 2846  2851     1 
 2846  2852     1 
 2846  2870     1 
 2847  2853     1 
 2847  2871     1 
 2847  2872     1 
 2847  2875     1 
 2848  2851     1 
 2848  2852     1 
 2848  2870     1 
 2849  2851     1 
 2849  2852     1 
 2849  2870     1 
 2850  2854     1 
 2850  2855     1 
 2850  2873     1 
 2850  2874     1 
 2850  2876     1 
 2851  2853     1 
 2851  2871     1 
 2851  2872     1 
 2851  2875     1 
 2852  2856     1 
 2852  2869     1 
 2852  2871     1 
 2852  2873     1 
 2852  2874     1 
 2852  2875     1 
 2853  2857     1 
 2853  2858     1 
 2853  2859     1 
 2853  2868     1 
 2853  2871     1 
 2853  2875     1 
 2854  2856     1 
 2854  2869     1 
 2854  2870     1 
 2854  2873     1 
 2854  2874     1 
 2855  2860     1 
 2855  2864     1 
 2855  2870     1 
 2855  2873     1 
 2855  2874     1 
 2856  2860     1 
 2856  2868     1 
 2856  2872     1 
 2857  2859     1 
 2857  2869     1 
 2858  2861     1 
 2858  2862     1 
 2858  2868     1 
 2859  2863     1 
 2859  2864     1 
 2860  2865     1 
 2860  2868     1 
 2861  2863     1 
 2861  2864     1 
 2861  2869     1 
 2862  2866     1 
 2862  2867     1 
 2862  2869     1 
 2863  2865     1 
 2863  2868     1 
 2865  2869     1 
 2866  2868     1 
 2867  2868     1 
 2869  2872     1 
 2870  2877     1 
 2870  2878     1 
 2870  2879     1 
 2871  2873     1 
 2871  2874     1 
 2871  2876     1 
 2872  2876     1 
 2873  2875     1 
 2874  2875     1 
 2875  2880     1 
 2876  2881     1 
 2876  2882     1 
 2876  2883     1 
 2877  2880     1 
 2878  2880     1 
 2879  2884     1 
 2879  2885     1 
 2879  2900     1 
 2880  2886     1 
 2880  2901     1 
 2880  2902     1 
 2880  2905     1 
 2881  2884     1 
 2881  2885     1 
 2881  2900     1 
 2882  2884     1 
 2882  2885     1 
 2882  2900     1 
 2883  2887     1 
 2883  2888     1 
 2883  2903     1 
 2883  2904     1 
 2883  2906     1 
 2884  2886     1 
 2884  2901     1 
 2884  2902     1 
 2884  2905     1 
 2885  2889     1 
 2885  2898     1 
 2885  2901     1 
 2885  2903     1 
 2885  2904     1 
 2885  2905     1 
 2886  2890     1 
 2886  2891     1 
 2886  2897     1 
 2886  2899     1 
 2886  2901     1 
 2886  2905     1 
 2887  2889     1 
 2887  2898     1 
 2887  2900     1 
 2887  2903     1 
 2887  2904     1 
 2888  2892     1 
 2888  2893     1 
 2888  2900     1 
 2888  2903     1 
 2888  2904     1 
 2889  2894     1 
 2889  2897     1 
 2889  2899     1 
 2889  2902     1 
 2890  2892     1 
 2890  2893     1 
 2890  2898     1 
 2891  2895     1 
 2891  2896     1 
 2891  2898     1 
 2892  2894     1 
 2892  2897     1 
 2893  2899     1 
 2894  2898     1 
 2895  2897     1 
 2896  2897     1 
 2898  2902     1 
 2900  2907     1 
 2900  2908     1 
 2900  2909     1 
 2901  2903     1 
 2901  2904     1 
 2901  2906     1 
 2902  2906     1 
 2903  2905     1 
 2904  2905     1 
 2905  2910     1 
 2906  2911     1 
 2906  2912     1 
 2906  2913     1 
 2907  2910     1 
 2908  2910     1 
 2909  2914     1 
 2909  2915     1 
 2909  2930     1 
 2910  2916     1 
 2910  2931     1 
 2910  2932     1 
 2910  2935     1 
 2911  2914     1 
 2911  2915     1 
 2911  2930     1 
 2912  2914     1 
 2912  2915     1 
 2912  2930     1 
 2913  2917     1 
 2913  2918     1 
 2913  2933     1 
 2913  2934     1 
 2913  2936     1 
 2914  2916     1 
 2914  2931     1 
 2914  2932     1 
 2914  2935     1 
 2915  2919     1 
 2915  2928     1 
 2915  2931     1 
 2915  2933     1 
 2915  2934     1 
 2915  2935     1 
 2916  2920     1 
 2916  2921     1 
 2916  2927     1 
 2916  2929     1 
 2916  2931     1 
 2916  2935     1 
 2917  2919     1 
 2917  2928     1 
 2917  2930     1 
 2917  2933     1 
 2917  2934     1 
 2918  2922     1 
 2918  2923     1 
 2918  2930     1 
 2918  2933     1 
 2918  2934     1 
 2919  2924     1 
 2919  2927     1 
 2919  2929     1 
 2919  2932     1 
 2920  2922     1 
 2920  2923     1 
 2920  2928     1 
 2921  2925     1 
 2921  2926     1 
 2921  2928     1 
 2922  2924     1 
 2922  2927     1 
 2923  2929     1 
 2924  2928     1 
 2925  2927     1 
 2926  2927     1 
 2928  2932     1 
 2930  2937     1 
 2930  2938     1 
 2930  2939     1 
 2931  2933     1 
 2931  2934     1 
 2931  2936     1 
 2932  2936     1 
 2933  2935     1 
 2934  2935     1 
 2935  2940     1 
 2936  2941     1 
 2936  2942     1 
 2936  2943     1 
 2937  2940     1 
 2938  2940     1 
 2939  2944     1 
 2939  2945     1 
 2939  2963     1 
 2940  2946     1 
 2940  2964     1 
 2940  2965     1 
 2940  2968     1 
 2941  2944     1 
 2941  2945     1 
 2941  2963     1 
 2942  2944     1 
 2942  2945     1 
 2942  2963     1 
 2943  2947     1 
 2943  2948     1 
 2943  2966     1 
 2943  2967     1 
 2943  2969     1 
 2944  2946     1 
 2944  2964     1 
 2944  2965     1 
 2944  2968     1 
 2945  2949     1 
 2945  2962     1 
 2945  2964     1 
 2945  2966     1 
 2945  2967     1 
 2945  2968     1 
 2946  2950     1 
 2946  2951     1 
 2946  2952     1 
 2946  2961     1 
 2946  2964     1 
 2946  2968     1 
 2947  2949     1 
 2947  2962     1 
 2947  2963     1 
 2947  2966     1 
 2947  2967     1 
 2948  2953     1 
 2948  2957     1 
 2948  2963     1 
 2948  2966     1 
 2948  2967     1 
 2949  2953     1 
 2949  2961     1 
 2949  2965     1 
 2950  2952     1 
 2950  2962     1 
 2951  2954     1 
 2951  2955     1 
 2951  2961     1 
 2952  2956     1 
 2952  2957     1 
 2953  2958     1 
 2953  2961     1 
 2954  2956     1 
 2954  2957     1 
 2954  2962     1 
 2955  2959     1 
 2955  2960     1 
 2955  2962     1 
 2956  2958     1 
 2956  2961     1 
 2958  2962     1 
 2959  2961     1 
 2960  2961     1 
 2962  2965     1 
 2963  2970     1 
 2963  2971     1 
 2963  2972     1 
 2964  2966     1 
 2964  2967     1 
 2964  2969     1 
 2965  2969     1 
 2966  2968     1 
 2967  2968     1 
 2968  2973     1 
 2969  2974     1 
 2969  2975     1 
 2969  2976     1 
 2970  2973     1 
 2971  2973     1 
 2972  2977     1 
 2972  2978     1 
 2972  2993     1 
 2973  2979     1 
 2973  2994     1 
 2973  2995     1 
 2973  2998     1 
 2974  2977     1 
 2974  2978     1 
 2974  2993     1 
 2975  2977     1 
 2975  2978     1 
 2975  2993     1 
 2976  2980     1 
 2976  2981     1 
 2976  2996     1 
 2976  2997     1 
 2976  2999     1 
 2977  2979     1 
 2977  2994     1 
 2977  2995     1 
 2977  2998     1 
 2978  2982     1 
 2978  2991     1 
 2978  2994     1 
 2978  2996     1 
 2978  2997     1 
 2978  2998     1 
 2979  2983     1 
 2979  2984     1 
 2979  2990     1 
 2979  2992     1 
 2979  2994     1 
 2979  2998     1 
 2980  2982     1 
 2980  2991     1 
 2980  2993     1 
 2980  2996     1 
 2980  2997     1 
 2981  2985     1 
 2981  2986     1 
 2981  2993     1 
 2981  2996     1 
 2981  2997     1 
 2982  2987     1 
 2982  2990     1 
 2982  2992     1 
 2982  2995     1 
 2983  2985     1 
 2983  2986     1 
 2983  2991     1 
 2984  2988     1 
 2984  2989     1 
 2984  2991     1 
 2985  2987     1 
 2985  2990     1 
 2986  2992     1 
 2987  2991     1 
 2988  2990     1 
 2989  2990     1 
 2991  2995     1 
 2993  3000     1 
 2993  3001     1 
 2993  3002     1 
 2994  2996     1 
 2994  2997     1 
 2994  2999     1 
 2995  2999     1 
 2996  2998     1 
 2997  2998     1 
 2998  3003     1 
 2999  3004     1 
 2999  3005     1 
 2999  3006     1 
 3000  3003     1 
 3001  3003     1 
 3002  3007     1 
 3002  3008     1 
 3002  3023     1 
 3003  3009     1 
 3003  3024     1 
 3003  3025     1 
 3003  3028     1 
 3004  3007     1 
 3004  3008     1 
 3004  3023     1 
 3005  3007     1 
 3005  3008     1 
 3005  3023     1 
 3006  3010     1 
 3006  3011     1 
 3006  3026     1 
 3006  3027     1 
 3006  3029     1 
 3007  3009     1 
 3007  3024     1 
 3007  3025     1 
 3007  3028     1 
 3008  3012     1 
 3008  3021     1 
 3008  3024     1 
 3008  3026     1 
 3008  3027     1 
 3008  3028     1 
 3009  3013     1 
 3009  3014     1 
 3009  3020     1 
 3009  3022     1 
 3009  3024     1 
 3009  3028     1 
 3010  3012     1 
 3010  3021     1 
 3010  3023     1 
 3010  3026     1 
 3010  3027     1 
 3011  3015     1 
 3011  3016     1 
 3011  3023     1 
 3011  3026     1 
 3011  3027     1 
 3012  3017     1 
 3012  3020     1 
 3012  3022     1 
 3012  3025     1 
 3013  3015     1 
 3013  3016     1 
 3013  3021     1 
 3014  3018     1 
 3014  3019     1 
 3014  3021     1 
 3015  3017     1 
 3015  3020     1 
 3016  3022     1 
 3017  3021     1 
 3018  3020     1 
 3019  3020     1 
 3021  3025     1 
 3023  3030     1 
 3023  3031     1 
 3023  3032     1 
 3024  3026     1 
 3024  3027     1 
 3024  3029     1 
 3025  3029     1 
 3026  3028     1 
 3027  3028     1 
 3028  3033     1 
 3029  3034     1 
 3029  3035     1 
 3029  3036     1 
 3030  3033     1 
 3031  3033     1 
 3032  3037     1 
 3032  3038     1 
 3032  3055     1 
 3033  3039     1 
 3033  3056     1 
 3033  3057     1 
 3033  3060     1 
 3034  3037     1 
 3034  3038     1 
 3034  3055     1 
 3035  3037     1 
 3035  3038     1 
 3035  3055     1 
 3036  3040     1 
 3036  3041     1 
 3036  3058     1 
 3036  3059     1 
 3036  3061     1 
 3037  3039     1 
 3037  3056     1 
 3037  3057     1 
 3037  3060     1 
 3038  3042     1 
 3038  3053     1 
 3038  3056     1 
 3038  3058     1 
 3038  3059     1 
 3038  3060     1 
 3039  3043     1 
 3039  3044     1 
 3039  3051     1 
 3039  3054     1 
 3039  3056     1 
 3039  3060     1 
 3040  3042     1 
 3040  3053     1 
 3040  3055     1 
 3040  3058     1 
 3040  3059     1 
 3041  3045     1 
 3041  3049     1 
 3041  3052     1 
 3041  3055     1 
 3041  3058     1 
 3041  3059     1 
 3042  3046     1 
 3042  3047     1 
 3042  3048     1 
 3042  3050     1 
 3042  3051     1 
 3042  3054     1 
 3042  3057     1 
 3043  3045     1 
 3043  3049     1 
 3043  3053     1 
 3044  3052     1 
 3044  3053     1 
 3045  3050     1 
 3045  3051     1 
 3046  3049     1 
 3047  3049     1 
 3048  3049     1 
 3049  3054     1 
 3050  3052     1 
 3050  3053     1 
 3052  3054     1 
 3053  3057     1 
 3055  3062     1 
 3055  3063     1 
 3055  3064     1 
 3056  3058     1 
 3056  3059     1 
 3056  3061     1 
 3057  3061     1 
 3058  3060     1 
 3059  3060     1 
 3060  3065     1 
 3061  3066     1 
 3061  3067     1 
 3061  3068     1 
 3062  3065     1 
 3063  3065     1 
 3064  3069     1 
 3064  3070     1 
 3064  3087     1 
 3065  3071     1 
 3065  3088     1 
 3065  3089     1 
 3065  3092     1 
 3066  3069     1 
 3066  3070     1 
 3066  3087     1 
 3067  3069     1 
 3067  3070     1 
 3067  3087     1 
 3068  3072     1 
 3068  3073     1 
 3068  3090     1 
 3068  3091     1 
 3068  3093     1 
 3069  3071     1 
 3069  3088     1 
 3069  3089     1 
 3069  3092     1 
 3070  3074     1 
 3070  3085     1 
 3070  3088     1 
 3070  3090     1 
 3070  3091     1 
 3070  3092     1 
 3071  3075     1 
 3071  3076     1 
 3071  3083     1 
 3071  3086     1 
 3071  3088     1 
 3071  3092     1 
 3072  3074     1 
 3072  3085     1 
 3072  3087     1 
 3072  3090     1 
 3072  3091     1 
 3073  3077     1 
 3073  3081     1 
 3073  3084     1 
 3073  3087     1 
 3073  3090     1 
 3073  3091     1 
 3074  3078     1 
 3074  3079     1 
 3074  3080     1 
 3074  3082     1 
 3074  3083     1 
 3074  3086     1 
 3074  3089     1 
 3075  3077     1 
 3075  3081     1 
 3075  3085     1 
 3076  3084     1 
 3076  3085     1 
 3077  3082     1 
 3077  3083     1 
 3078  3081     1 
 3079  3081     1 
 3080  3081     1 
 3081  3086     1 
 3082  3084     1 
 3082  3085     1 
 3084  3086     1 
 3085  3089     1 
 3087  3094     1 
 3087  3095     1 
 3087  3096     1 
 3088  3090     1 
 3088  3091     1 
 3088  3093     1 
 3089  3093     1 
 3090  3092     1 
 3091  3092     1 
 3092  3097     1 
 3093  3098     1 
 3093  3099     1 
 3093  3100     1 
 3094  3097     1 
 3095  3097     1 
 3096  3101     1 
 3096  3102     1 
 3096  3117     1 
 3097  3103     1 
 3097  3118     1 
 3097  3119     1 
 3097  3122     1 
 3098  3101     1 
 3098  3102     1 
 3098  3117     1 
 3099  3101     1 
 3099  3102     1 
 3099  3117     1 
 3100  3104     1 
 3100  3105     1 
 3100  3120     1 
 3100  3121     1 
 3100  3123     1 
 3101  3103     1 
 3101  3118     1 
 3101  3119     1 
 3101  3122     1 
 3102  3106     1 
 3102  3115     1 
 3102  3118     1 
 3102  3120     1 
 3102  3121     1 
 3102  3122     1 
 3103  3107     1 
 3103  3108     1 
 3103  3114     1 
 3103  3116     1 
 3103  3118     1 
 3103  3122     1 
 3104  3106     1 
 3104  3115     1 
 3104  3117     1 
 3104  3120     1 
 3104  3121     1 
 3105  3109     1 
 3105  3110     1 
 3105  3117     1 
 3105  3120     1 
 3105  3121     1 
 3106  3111     1 
 3106  3114     1 
 3106  3116     1 
 3106  3119     1 
 3107  3109     1 
 3107  3110     1 
 3107  3115     1 
 3108  3112     1 
 3108  3113     1 
 3108  3115     1 
 3109  3111     1 
 3109  3114     1 
 3110  3116     1 
 3111  3115     1 
 3112  3114     1 
 3113  3114     1 
 3115  3119     1 
 3117  3124     1 
 3117  3125     1 
 3117  3126     1 
 3118  3120     1 
 3118  3121     1 
 3118  3123     1 
 3119  3123     1 
 3120  3122     1 
 3121  3122     1 
 3122  3127     1 
 3123  3128     1 
 3123  3129     1 
 3123  3130     1 
 3124  3127     1 
 3125  3127     1 
 3126  3131     1 
 3126  3132     1 
 3126  3149     1 
 3127  3133     1 
 3127  3150     1 
 3127  3151     1 
 3127  3154     1 
 3128  3131     1 
 3128  3132     1 
 3128  3149     1 
 3129  3131     1 
 3129  3132     1 
 3129  3149     1 
 3130  3134     1 
 3130  3135     1 
 3130  3152     1 
 3130  3153     1 
 3130  3155     1 
 3131  3133     1 
 3131  3150     1 
 3131  3151     1 
 3131  3154     1 
 3132  3136     1 
 3132  3148     1 
 3132  3150     1 
 3132  3152     1 
 3132  3153     1 
 3132  3154     1 
 3133  3137     1 
 3133  3138     1 
 3133  3139     1 
 3133  3147     1 
 3133  3150     1 
 3133  3154     1 
 3134  3136     1 
 3134  3148     1 
 3134  3149     1 
 3134  3152     1 
 3134  3153     1 
 3135  3140     1 
 3135  3145     1 
 3135  3149     1 
 3135  3152     1 
 3135  3153     1 
 3136  3140     1 
 3136  3147     1 
 3136  3151     1 
 3137  3139     1 
 3137  3148     1 
 3138  3141     1 
 3138  3144     1 
 3138  3147     1 
 3139  3142     1 
 3139  3143     1 
 3139  3145     1 
 3140  3146     1 
 3140  3147     1 
 3141  3145     1 
 3141  3148     1 
 3142  3144     1 
 3143  3144     1 
 3144  3148     1 
 3146  3148     1 
 3148  3151     1 
 3149  3156     1 
 3149  3157     1 
 3149  3158     1 
 3150  3152     1 
 3150  3153     1 
 3150  3155     1 
 3151  3155     1 
 3152  3154     1 
 3153  3154     1 
 3154  3159     1 
 3155  3160     1 
 3155  3161     1 
 3155  3162     1 
 3156  3159     1 
 3157  3159     1 
 3158  3163     1 
 3158  3164     1 
 3158  3182     1 
 3159  3165     1 
 3159  3183     1 
 3159  3184     1 
 3159  3187     1 
 3160  3163     1 
 3160  3164     1 
 3160  3182     1 
 3161  3163     1 
 3161  3164     1 
 3161  3182     1 
 3162  3166     1 
 3162  3167     1 
 3162  3185     1 
 3162  3186     1 
 3162  3188     1 
 3163  3165     1 
 3163  3183     1 
 3163  3184     1 
 3163  3187     1 
 3164  3168     1 
 3164  3181     1 
 3164  3183     1 
 3164  3185     1 
 3164  3186     1 
 3164  3187     1 
 3165  3169     1 
 3165  3170     1 
 3165  3171     1 
 3165  3180     1 
 3165  3183     1 
 3165  3187     1 
 3166  3168     1 
 3166  3181     1 
 3166  3182     1 
 3166  3185     1 
 3166  3186     1 
 3167  3172     1 
 3167  3176     1 
 3167  3182     1 
 3167  3185     1 
 3167  3186     1 
 3168  3172     1 
 3168  3180     1 
 3168  3184     1 
 3169  3171     1 
 3169  3181     1 
 3170  3173     1 
 3170  3174     1 
 3170  3180     1 
 3171  3175     1 
 3171  3176     1 
 3172  3177     1 
 3172  3180     1 
 3173  3175     1 
 3173  3176     1 
 3173  3181     1 
 3174  3178     1 
 3174  3179     1 
 3174  3181     1 
 3175  3177     1 
 3175  3180     1 
 3177  3181     1 
 3178  3180     1 
 3179  3180     1 
 3181  3184     1 
 3182  3189     1 
 3182  3190     1 
 3182  3191     1 
 3183  3185     1 
 3183  3186     1 
 3183  3188     1 
 3184  3188     1 
 3185  3187     1 
 3186  3187     1 
 3187  3192     1 
 3188  3193     1 
 3188  3194     1 
 3188  3195     1 
 3189  3192     1 
 3190  3192     1 
 3191  3196     1 
 3191  3197     1 
 3191  3214     1 
 3192  3198     1 
 3192  3215     1 
 3192  3216     1 
 3192  3219     1 
 3193  3196     1 
 3193  3197     1 
 3193  3214     1 
 3194  3196     1 
 3194  3197     1 
 3194  3214     1 
 3195  3199     1 
 3195  3200     1 
 3195  3217     1 
 3195  3218     1 
 3195  3220     1 
 3196  3198     1 
 3196  3215     1 
 3196  3216     1 
 3196  3219     1 
 3197  3201     1 
 3197  3212     1 
 3197  3215     1 
 3197  3217     1 
 3197  3218     1 
 3197  3219     1 
 3198  3202     1 
 3198  3203     1 
 3198  3210     1 
 3198  3213     1 
 3198  3215     1 
 3198  3219     1 
 3199  3201     1 
 3199  3212     1 
 3199  3214     1 
 3199  3217     1 
 3199  3218     1 
 3200  3204     1 
 3200  3208     1 
 3200  3211     1 
 3200  3214     1 
 3200  3217     1 
 3200  3218     1 
 3201  3205     1 
 3201  3206     1 
 3201  3207     1 
 3201  3209     1 
 3201  3210     1 
 3201  3213     1 
 3201  3216     1 
 3202  3204     1 
 3202  3208     1 
 3202  3212     1 
 3203  3211     1 
 3203  3212     1 
 3204  3209     1 
 3204  3210     1 
 3205  3208     1 
 3206  3208     1 
 3207  3208     1 
 3208  3213     1 
 3209  3211     1 
 3209  3212     1 
 3211  3213     1 
 3212  3216     1 
 3214  3221     1 
 3214  3222     1 
 3214  3223     1 
 3215  3217     1 
 3215  3218     1 
 3215  3220     1 
 3216  3220     1 
 3217  3219     1 
 3218  3219     1 
 3219  3224     1 
 3220  3225     1 
 3220  3226     1 
 3220  3227     1 
 3221  3224     1 
 3222  3224     1 
 3223  3228     1 
 3223  3229     1 
 3223  3247     1 
 3224  3230     1 
 3224  3248     1 
 3224  3249     1 
 3224  3252     1 
 3225  3228     1 
 3225  3229     1 
 3225  3247     1 
 3226  3228     1 
 3226  3229     1 
 3226  3247     1 
 3227  3231     1 
 3227  3232     1 
 3227  3250     1 
 3227  3251     1 
 3227  3253     1 
 3228  3230     1 
 3228  3248     1 
 3228  3249     1 
 3228  3252     1 
 3229  3233     1 
 3229  3246     1 
 3229  3248     1 
 3229  3250     1 
 3229  3251     1 
 3229  3252     1 
 3230  3234     1 
 3230  3235     1 
 3230  3236     1 
 3230  3245     1 
 3230  3248     1 
 3230  3252     1 
 3231  3233     1 
 3231  3246     1 
 3231  3247     1 
 3231  3250     1 
 3231  3251     1 
 3232  3237     1 
 3232  3241     1 
 3232  3247     1 
 3232  3250     1 
 3232  3251     1 
 3233  3237     1 
 3233  3245     1 
 3233  3249     1 
 3234  3236     1 
 3234  3246     1 
 3235  3238     1 
 3235  3239     1 
 3235  3245     1 
 3236  3240     1 
 3236  3241     1 
 3237  3242     1 
 3237  3245     1 
 3238  3240     1 
 3238  3241     1 
 3238  3246     1 
 3239  3243     1 
 3239  3244     1 
 3239  3246     1 
 3240  3242     1 
 3240  3245     1 
 3242  3246     1 
 3243  3245     1 
 3244  3245     1 
 3246  3249     1 
 3247  3254     1 
 3247  3255     1 
 3247  3256     1 
 3248  3250     1 
 3248  3251     1 
 3248  3253     1 
 3249  3253     1 
 3250  3252     1 
 3251  3252     1 
 3252  3257     1 
 3253  3258     1 
 3253  3259     1 
 3253  3260     1 
 3254  3257     1 
 3255  3257     1 
 3256  3261     1 
 3256  3262     1 
 3256  3277     1 
 3257  3263     1 
 3257  3278     1 
 3257  3279     1 
 3257  3282     1 
 3258  3261     1 
 3258  3262     1 
 3258  3277     1 
 3259  3261     1 
 3259  3262     1 
 3259  3277     1 
 3260  3264     1 
 3260  3265     1 
 3260  3280     1 
 3260  3281     1 
 3260  3283     1 
 3261  3263     1 
 3261  3278     1 
 3261  3279     1 
 3261  3282     1 
 3262  3266     1 
 3262  3275     1 
 3262  3278     1 
 3262  3280     1 
 3262  3281     1 
 3262  3282     1 
 3263  3267     1 
 3263  3268     1 
 3263  3274     1 
 3263  3276     1 
 3263  3278     1 
 3263  3282     1 
 3264  3266     1 
 3264  3275     1 
 3264  3277     1 
 3264  3280     1 
 3264  3281     1 
 3265  3269     1 
 3265  3270     1 
 3265  3277     1 
 3265  3280     1 
 3265  3281     1 
 3266  3271     1 
 3266  3274     1 
 3266  3276     1 
 3266  3279     1 
 3267  3269     1 
 3267  3270     1 
 3267  3275     1 
 3268  3272     1 
 3268  3273     1 
 3268  3275     1 
 3269  3271     1 
 3269  3274     1 
 3270  3276     1 
 3271  3275     1 
 3272  3274     1 
 3273  3274     1 
 3275  3279     1 
 3277  3284     1 
 3277  3285     1 
 3277  3286     1 
 3278  3280     1 
 3278  3281     1 
 3278  3283     1 
 3279  3283     1 
 3280  3282     1 
 3281  3282     1 
 3282  3287     1 
 3283  3288     1 
 3283  3289     1 
 3283  3290     1 
 3284  3287     1 
 3285  3287     1 
 3286  3291     1 
 3286  3292     1 
 3286  3307     1 
 3287  3293     1 
 3287  3308     1 
 3287  3309     1 
 3287  3312     1 
 3288  3291     1 
 3288  3292     1 
 3288  3307     1 
 3289  3291     1 
 3289  3292     1 
 3289  3307     1 
 3290  3294     1 
 3290  3295     1 
 3290  3310     1 
 3290  3311     1 
 3290  3313     1 
 3291  3293     1 
 3291  3308     1 
 3291  3309     1 
 3291  3312     1 
 3292  3296     1 
 3292  3305     1 
 3292  3308     1 
 3292  3310     1 
 3292  3311     1 
 3292  3312     1 
 3293  3297     1 
 3293  3298     1 
 3293  3304     1 
 3293  3306     1 
 3293  3308     1 
 3293  3312     1 
 3294  3296     1 
 3294  3305     1 
 3294  3307     1 
 3294  3310     1 
 3294  3311     1 
 3295  3299     1 
 3295  3300     1 
 3295  3307     1 
 3295  3310     1 
 3295  3311     1 
 3296  3301     1 
 3296  3304     1 
 3296  3306     1 
 3296  3309     1 
 3297  3299     1 
 3297  3300     1 
 3297  3305     1 
 3298  3302     1 
 3298  3303     1 
 3298  3305     1 
 3299  3301     1 
 3299  3304     1 
 3300  3306     1 
 3301  3305     1 
 3302  3304     1 
 3303  3304     1 
 3305  3309     1 
 3307  3314     1 
 3307  3315     1 
 3307  3316     1 
 3308  3310     1 
 3308  3311     1 
 3308  3313     1 
 3309  3313     1 
 3310  3312     1 
 3311  3312     1 
 3312  3317     1 
 3313  3318     1 
 3313  3319     1 
 3313  3320     1 
 3314  3317     1 
 3315  3317     1 
 3316  3321     1 
 3316  3322     1 
 3316  3339     1 
 3317  3323     1 
 3317  3340     1 
 3317  3341     1 
 3317  3344     1 
 3318  3321     1 
 3318  3322     1 
 3318  3339     1 
 3319  3321     1 
 3319  3322     1 
 3319  3339     1 
 3320  3324     1 
 3320  3325     1 
 3320  3342     1 
 3320  3343     1 
 3320  3345     1 
 3321  3323     1 
 3321  3340     1 
 3321  3341     1 
 3321  3344     1 
 3322  3326     1 
 3322  3337     1 
 3322  3340     1 
 3322  3342     1 
 3322  3343     1 
 3322  3344     1 
 3323  3327     1 
 3323  3328     1 
 3323  3335     1 
 3323  3338     1 
 3323  3340     1 
 3323  3344     1 
 3324  3326     1 
 3324  3337     1 
 3324  3339     1 
 3324  3342     1 
 3324  3343     1 
 3325  3329     1 
 3325  3333     1 
 3325  3336     1 
 3325  3339     1 
 3325  3342     1 
 3325  3343     1 
 3326  3330     1 
 3326  3331     1 
 3326  3332     1 
 3326  3334     1 
 3326  3335     1 
 3326  3338     1 
 3326  3341     1 
 3327  3329     1 
 3327  3333     1 
 3327  3337     1 
 3328  3336     1 
 3328  3337     1 
 3329  3334     1 
 3329  3335     1 
 3330  3333     1 
 3331  3333     1 
 3332  3333     1 
 3333  3338     1 
 3334  3336     1 
 3334  3337     1 
 3336  3338     1 
 3337  3341     1 
 3339  3346     1 
 3339  3347     1 
 3339  3348     1 
 3340  3342     1 
 3340  3343     1 
 3340  3345     1 
 3341  3345     1 
 3342  3344     1 
 3343  3344     1 
 3344  3349     1 
 3345  3350     1 
 3345  3351     1 
 3345  3352     1 
 3346  3349     1 
 3347  3349     1 
 3348  3353     1 
 3348  3354     1 
 3348  3372     1 
 3349  3355     1 
 3349  3373     1 
 3349  3374     1 
 3349  3377     1 
 3350  3353     1 
 3350  3354     1 
 3350  3372     1 
 3351  3353     1 
 3351  3354     1 
 3351  3372     1 
 3352  3356     1 
 3352  3357     1 
 3352  3375     1 
 3352  3376     1 
 3352  3378     1 
 3353  3355     1 
 3353  3373     1 
 3353  3374     1 
 3353  3377     1 
 3354  3358     1 
 3354  3371     1 
 3354  3373     1 
 3354  3375     1 
 3354  3376     1 
 3354  3377     1 
 3355  3359     1 
 3355  3360     1 
 3355  3361     1 
 3355  3370     1 
 3355  3373     1 
 3355  3377     1 
 3356  3358     1 
 3356  3371     1 
 3356  3372     1 
 3356  3375     1 
 3356  3376     1 
 3357  3362     1 
 3357  3366     1 
 3357  3372     1 
 3357  3375     1 
 3357  3376     1 
 3358  3362     1 
 3358  3370     1 
 3358  3374     1 
 3359  3361     1 
 3359  3371     1 
 3360  3363     1 
 3360  3364     1 
 3360  3370     1 
 3361  3365     1 
 3361  3366     1 
 3362  3367     1 
 3362  3370     1 
 3363  3365     1 
 3363  3366     1 
 3363  3371     1 
 3364  3368     1 
 3364  3369     1 
 3364  3371     1 
 3365  3367     1 
 3365  3370     1 
 3367  3371     1 
 3368  3370     1 
 3369  3370     1 
 3371  3374     1 
 3372  3379     1 
 3372  3380     1 
 3372  3381     1 
 3373  3375     1 
 3373  3376     1 
 3373  3378     1 
 3374  3378     1 
 3375  3377     1 
 3376  3377     1 
 3377  3382     1 
 3378  3383     1 
 3378  3384     1 
 3378  3385     1 
 3379  3382     1 
 3380  3382     1 
 3381  3386     1 
 3381  3387     1 
 3381  3402     1 
 3382  3388     1 
 3382  3403     1 
 3382  3404     1 
 3382  3407     1 
 3383  3386     1 
 3383  3387     1 
 3383  3402     1 
 3384  3386     1 
 3384  3387     1 
 3384  3402     1 
 3385  3389     1 
 3385  3390     1 
 3385  3405     1 
 3385  3406     1 
 3385  3408     1 
 3386  3388     1 
 3386  3403     1 
 3386  3404     1 
 3386  3407     1 
 3387  3391     1 
 3387  3400     1 
 3387  3403     1 
 3387  3405     1 
 3387  3406     1 
 3387  3407     1 
 3388  3392     1 
 3388  3393     1 
 3388  3399     1 
 3388  3401     1 
 3388  3403     1 
 3388  3407     1 
 3389  3391     1 
 3389  3400     1 
 3389  3402     1 
 3389  3405     1 
 3389  3406     1 
 3390  3394     1 
 3390  3395     1 
 3390  3402     1 
 3390  3405     1 
 3390  3406     1 
 3391  3396     1 
 3391  3399     1 
 3391  3401     1 
 3391  3404     1 
 3392  3394     1 
 3392  3395     1 
 3392  3400     1 
 3393  3397     1 
 3393  3398     1 
 3393  3400     1 
 3394  3396     1 
 3394  3399     1 
 3395  3401     1 
 3396  3400     1 
 3397  3399     1 
 3398  3399     1 
 3400  3404     1 
 3402  3409     1 
 3402  3410     1 
 3402  3411     1 
 3403  3405     1 
 3403  3406     1 
 3403  3408     1 
 3404  3408     1 
 3405  3407     1 
 3406  3407     1 
 3407  3412     1 
 3408  3413     1 
 3408  3414     1 
 3408  3415     1 
 3409  3412     1 
 3410  3412     1 
 3411  3416     1 
 3411  3417     1 
 3411  3435     1 
 3412  3418     1 
 3412  3436     1 
 3412  3437     1 
 3412  3440     1 
 3413  3416     1 
 3413  3417     1 
 3413  3435     1 
 3414  3416     1 
 3414  3417     1 
 3414  3435     1 
 3415  3419     1 
 3415  3420     1 
 3415  3438     1 
 3415  3439     1 
 3415  3441     1 
 3416  3418     1 
 3416  3436     1 
 3416  3437     1 
 3416  3440     1 
 3417  3421     1 
 3417  3434     1 
 3417  3436     1 
 3417  3438     1 
 3417  3439     1 
 3417  3440     1 
 3418  3422     1 
 3418  3423     1 
 3418  3424     1 
 3418  3433     1 
 3418  3436     1 
 3418  3440     1 
 3419  3421     1 
 3419  3434     1 
 3419  3435     1 
 3419  3438     1 
 3419  3439     1 
 3420  3425     1 
 3420  3429     1 
 3420  3435     1 
 3420  3438     1 
 3420  3439     1 
 3421  3425     1 
 3421  3433     1 
 3421  3437     1 
 3422  3424     1 
 3422  3434     1 
 3423  3426     1 
 3423  3427     1 
 3423  3433     1 
 3424  3428     1 
 3424  3429     1 
 3425  3430     1 
 3425  3433     1 
 3426  3428     1 
 3426  3429     1 
 3426  3434     1 
 3427  3431     1 
 3427  3432     1 
 3427  3434     1 
 3428  3430     1 
 3428  3433     1 
 3430  3434     1 
 3431  3433     1 
 3432  3433     1 
 3434  3437     1 
 3435  3442     1 
 3435  3443     1 
 3435  3444     1 
 3436  3438     1 
 3436  3439     1 
 3436  3441     1 
 3437  3441     1 
 3438  3440     1 
 3439  3440     1 
 3440  3445     1 
 3441  3446     1 
 3441  3447     1 
 3441  3448     1 
 3442  3445     1 
 3443  3445     1 
 3444  3449     1 
 3444  3450     1 
 3444  3465     1 
 3445  3451     1 
 3445  3466     1 
 3445  3467     1 
 3445  3470     1 
 3446  3449     1 
 3446  3450     1 
 3446  3465     1 
 3447  3449     1 
 3447  3450     1 
 3447  3465     1 
 3448  3452     1 
 3448  3453     1 
 3448  3468     1 
 3448  3469     1 
 3448  3471     1 
 3449  3451     1 
 3449  3466     1 
 3449  3467     1 
 3449  3470     1 
 3450  3454     1 
 3450  3463     1 
 3450  3466     1 
 3450  3468     1 
 3450  3469     1 
 3450  3470     1 
 3451  3455     1 
 3451  3456     1 
 3451  3462     1 
 3451  3464     1 
 3451  3466     1 
 3451  3470     1 
 3452  3454     1 
 3452  3463     1 
 3452  3465     1 
 3452  3468     1 
 3452  3469     1 
 3453  3457     1 
 3453  3458     1 
 3453  3465     1 
 3453  3468     1 
 3453  3469     1 
 3454  3459     1 
 3454  3462     1 
 3454  3464     1 
 3454  3467     1 
 3455  3457     1 
 3455  3458     1 
 3455  3463     1 
 3456  3460     1 
 3456  3461     1 
 3456  3463     1 
 3457  3459     1 
 3457  3462     1 
 3458  3464     1 
 3459  3463     1 
 3460  3462     1 
 3461  3462     1 
 3463  3467     1 
 3465  3472     1 
 3465  3473     1 
 3465  3474     1 
 3466  3468     1 
 3466  3469     1 
 3466  3471     1 
 3467  3471     1 
 3468  3470     1 
 3469  3470     1 
 3470  3475     1 
 3471  3476     1 
 3471  3477     1 
 3471  3478     1 
 3472  3475     1 
 3473  3475     1 
 3474  3479     1 
 3474  3480     1 
 3474  3495     1 
 3475  3481     1 
 3475  3496     1 
 3475  3497     1 
 3475  3500     1 
 3476  3479     1 
 3476  3480     1 
 3476  3495     1 
 3477  3479     1 
 3477  3480     1 
 3477  3495     1 
 3478  3482     1 
 3478  3483     1 
 3478  3498     1 
 3478  3499     1 
 3478  3501     1 
 3479  3481     1 
 3479  3496     1 
 3479  3497     1 
 3479  3500     1 
 3480  3484     1 
 3480  3493     1 
 3480  3496     1 
 3480  3498     1 
 3480  3499     1 
 3480  3500     1 
 3481  3485     1 
 3481  3486     1 
 3481  3492     1 
 3481  3494     1 
 3481  3496     1 
 3481  3500     1 
 3482  3484     1 
 3482  3493     1 
 3482  3495     1 
 3482  3498     1 
 3482  3499     1 
 3483  3487     1 
 3483  3488     1 
 3483  3495     1 
 3483  3498     1 
 3483  3499     1 
 3484  3489     1 
 3484  3492     1 
 3484  3494     1 
 3484  3497     1 
 3485  3487     1 
 3485  3488     1 
 3485  3493     1 
 3486  3490     1 
 3486  3491     1 
 3486  3493     1 
 3487  3489     1 
 3487  3492     1 
 3488  3494     1 
 3489  3493     1 
 3490  3492     1 
 3491  3492     1 
 3493  3497     1 
 3495  3502     1 
 3495  3503     1 
 3495  3504     1 
 3496  3498     1 
 3496  3499     1 
 3496  3501     1 
 3497  3501     1 
 3498  3500     1 
 3499  3500     1 
 3500  3505     1 
 3501  3506     1 
 3501  3507     1 
 3501  3508     1 
 3502  3505     1 
 3503  3505     1 
 3504  3509     1 
 3504  3510     1 
 3504  3528     1 
 3505  3511     1 
 3505  3529     1 
 3505  3530     1 
 3505  3533     1 
 3506  3509     1 
 3506  3510     1 
 3506  3528     1 
 3507  3509     1 
 3507  3510     1 
 3507  3528     1 
 3508  3512     1 
 3508  3513     1 
 3508  3531     1 
 3508  3532     1 
 3508  3534     1 
 3509  3511     1 
 3509  3529     1 
 3509  3530     1 
 3509  3533     1 
 3510  3514     1 
 3510  3527     1 
 3510  3529     1 
 3510  3531     1 
 3510  3532     1 
 3510  3533     1 
 3511  3515     1 
 3511  3516     1 
 3511  3517     1 
 3511  3526     1 
 3511  3529     1 
 3511  3533     1 
 3512  3514     1 
 3512  3527     1 
 3512  3528     1 
 3512  3531     1 
 3512  3532     1 
 3513  3518     1 
 3513  3522     1 
 3513  3528     1 
 3513  3531     1 
 3513  3532     1 
 3514  3518     1 
 3514  3526     1 
 3514  3530     1 
 3515  3517     1 
 3515  3527     1 
 3516  3519     1 
 3516  3520     1 
 3516  3526     1 
 3517  3521     1 
 3517  3522     1 
 3518  3523     1 
 3518  3526     1 
 3519  3521     1 
 3519  3522     1 
 3519  3527     1 
 3520  3524     1 
 3520  3525     1 
 3520  3527     1 
 3521  3523     1 
 3521  3526     1 
 3523  3527     1 
 3524  3526     1 
 3525  3526     1 
 3527  3530     1 
 3528  3535     1 
 3528  3536     1 
 3528  3537     1 
 3529  3531     1 
 3529  3532     1 
 3529  3534     1 
 3530  3534     1 
 3531  3533     1 
 3532  3533     1 
 3533  3538     1 
 3534  3539     1 
 3534  3540     1 
 3534  3541     1 
 3535  3538     1 
 3536  3538     1 
 3537  3542     1 
 3537  3543     1 
 3537  3558     1 
 3538  3544     1 
 3538  3559     1 
 3538  3560     1 
 3538  3563     1 
 3539  3542     1 
 3539  3543     1 
 3539  3558     1 
 3540  3542     1 
 3540  3543     1 
 3540  3558     1 
 3541  3545     1 
 3541  3546     1 
 3541  3561     1 
 3541  3562     1 
 3541  3564     1 
 3542  3544     1 
 3542  3559     1 
 3542  3560     1 
 3542  3563     1 
 3543  3547     1 
 3543  3556     1 
 3543  3559     1 
 3543  3561     1 
 3543  3562     1 
 3543  3563     1 
 3544  3548     1 
 3544  3549     1 
 3544  3555     1 
 3544  3557     1 
 3544  3559     1 
 3544  3563     1 
 3545  3547     1 
 3545  3556     1 
 3545  3558     1 
 3545  3561     1 
 3545  3562     1 
 3546  3550     1 
 3546  3551     1 
 3546  3558     1 
 3546  3561     1 
 3546  3562     1 
 3547  3552     1 
 3547  3555     1 
 3547  3557     1 
 3547  3560     1 
 3548  3550     1 
 3548  3551     1 
 3548  3556     1 
 3549  3553     1 
 3549  3554     1 
 3549  3556     1 
 3550  3552     1 
 3550  3555     1 
 3551  3557     1 
 3552  3556     1 
 3553  3555     1 
 3554  3555     1 
 3556  3560     1 
 3558  3565     1 
 3558  3566     1 
 3558  3567     1 
 3559  3561     1 
 3559  3562     1 
 3559  3564     1 
 3560  3564     1 
 3561  3563     1 
 3562  3563     1 
 3563  3568     1 
 3564  3569     1 
 3564  3570     1 
 3564  3571     1 
 3565  3568     1 
 3566  3568     1 
 3567  3572     1 
 3567  3573     1 
 3567  3591     1 
 3568  3574     1 
 3568  3592     1 
 3568  3593     1 
 3568  3596     1 
 3569  3572     1 
 3569  3573     1 
 3569  3591     1 
 3570  3572     1 
 3570  3573     1 
 3570  3591     1 
 3571  3575     1 
 3571  3576     1 
 3571  3594     1 
 3571  3595     1 
 3571  3597     1 
 3572  3574     1 
 3572  3592     1 
 3572  3593     1 
 3572  3596     1 
 3573  3577     1 
 3573  3590     1 
 3573  3592     1 
 3573  3594     1 
 3573  3595     1 
 3573  3596     1 
 3574  3578     1 
 3574  3579     1 
 3574  3580     1 
 3574  3589     1 
 3574  3592     1 
 3574  3596     1 
 3575  3577     1 
 3575  3590     1 
 3575  3591     1 
 3575  3594     1 
 3575  3595     1 
 3576  3581     1 
 3576  3585     1 
 3576  3591     1 
 3576  3594     1 
 3576  3595     1 
 3577  3581     1 
 3577  3589     1 
 3577  3593     1 
 3578  3580     1 
 3578  3590     1 
 3579  3582     1 
 3579  3583     1 
 3579  3589     1 
 3580  3584     1 
 3580  3585     1 
 3581  3586     1 
 3581  3589     1 
 3582  3584     1 
 3582  3585     1 
 3582  3590     1 
 3583  3587     1 
 3583  3588     1 
 3583  3590     1 
 3584  3586     1 
 3584  3589     1 
 3586  3590     1 
 3587  3589     1 
 3588  3589     1 
 3590  3593     1 
 3591  3598     1 
 3591  3599     1 
 3591  3600     1 
 3592  3594     1 
 3592  3595     1 
 3592  3597     1 
 3593  3597     1 
 3594  3596     1 
 3595  3596     1 
 3596  3601     1 
 3597  3602     1 
 3597  3603     1 
 3597  3604     1 
 3598  3601     1 
 3599  3601     1 
 3600  3605     1 
 3600  3606     1 
 3600  3621     1 
 3601  3607     1 
 3601  3622     1 
 3601  3623     1 
 3601  3626     1 
 3602  3605     1 
 3602  3606     1 
 3602  3621     1 
 3603  3605     1 
 3603  3606     1 
 3603  3621     1 
 3604  3608     1 
 3604  3609     1 
 3604  3624     1 
 3604  3625     1 
 3604  3627     1 
 3605  3607     1 
 3605  3622     1 
 3605  3623     1 
 3605  3626     1 
 3606  3610     1 
 3606  3619     1 
 3606  3622     1 
 3606  3624     1 
 3606  3625     1 
 3606  3626     1 
 3607  3611     1 
 3607  3612     1 
 3607  3618     1 
 3607  3620     1 
 3607  3622     1 
 3607  3626     1 
 3608  3610     1 
 3608  3619     1 
 3608  3621     1 
 3608  3624     1 
 3608  3625     1 
 3609  3613     1 
 3609  3614     1 
 3609  3621     1 
 3609  3624     1 
 3609  3625     1 
 3610  3615     1 
 3610  3618     1 
 3610  3620     1 
 3610  3623     1 
 3611  3613     1 
 3611  3614     1 
 3611  3619     1 
 3612  3616     1 
 3612  3617     1 
 3612  3619     1 
 3613  3615     1 
 3613  3618     1 
 3614  3620     1 
 3615  3619     1 
 3616  3618     1 
 3617  3618     1 
 3619  3623     1 
 3621  3628     1 
 3621  3629     1 
 3621  3630     1 
 3622  3624     1 
 3622  3625     1 
 3622  3627     1 
 3623  3627     1 
 3624  3626     1 
 3625  3626     1 
 3626  3631     1 
 3627  3632     1 
 3627  3633     1 
 3627  3634     1 
 3628  3631     1 
 3629  3631     1 
 3630  3635     1 
 3630  3636     1 
 3630  3653     1 
 3631  3637     1 
 3631  3654     1 
 3631  3655     1 
 3631  3658     1 
 3632  3635     1 
 3632  3636     1 
 3632  3653     1 
 3633  3635     1 
 3633  3636     1 
 3633  3653     1 
 3634  3638     1 
 3634  3639     1 
 3634  3656     1 
 3634  3657     1 
 3634  3659     1 
 3635  3637     1 
 3635  3654     1 
 3635  3655     1 
 3635  3658     1 
 3636  3640     1 
 3636  3651     1 
 3636  3654     1 
 3636  3656     1 
 3636  3657     1 
 3636  3658     1 
 3637  3641     1 
 3637  3642     1 
 3637  3649     1 
 3637  3652     1 
 3637  3654     1 
 3637  3658     1 
 3638  3640     1 
 3638  3651     1 
 3638  3653     1 
 3638  3656     1 
 3638  3657     1 
 3639  3643     1 
 3639  3647     1 
 3639  3650     1 
 3639  3653     1 
 3639  3656     1 
 3639  3657     1 
 3640  3644     1 
 3640  3645     1 
 3640  3646     1 
 3640  3648     1 
 3640  3649     1 
 3640  3652     1 
 3640  3655     1 
 3641  3643     1 
 3641  3647     1 
 3641  3651     1 
 3642  3650     1 
 3642  3651     1 
 3643  3648     1 
 3643  3649     1 
 3644  3647     1 
 3645  3647     1 
 3646  3647     1 
 3647  3652     1 
 3648  3650     1 
 3648  3651     1 
 3650  3652     1 
 3651  3655     1 
 3653  3660     1 
 3653  3661     1 
 3653  3662     1 
 3654  3656     1 
 3654  3657     1 
 3654  3659     1 
 3655  3659     1 
 3656  3658     1 
 3657  3658     1 
 3658  3663     1 
 3659  3664     1 
 3659  3665     1 
 3659  3666     1 
 3660  3663     1 
 3661  3663     1 
 3662  3667     1 
 3662  3668     1 
 3662  3683     1 
 3663  3669     1 
 3663  3684     1 
 3663  3685     1 
 3663  3688     1 
 3664  3667     1 
 3664  3668     1 
 3664  3683     1 
 3665  3667     1 
 3665  3668     1 
 3665  3683     1 
 3666  3670     1 
 3666  3671     1 
 3666  3686     1 
 3666  3687     1 
 3666  3689     1 
 3667  3669     1 
 3667  3684     1 
 3667  3685     1 
 3667  3688     1 
 3668  3672     1 
 3668  3681     1 
 3668  3684     1 
 3668  3686     1 
 3668  3687     1 
 3668  3688     1 
 3669  3673     1 
 3669  3674     1 
 3669  3680     1 
 3669  3682     1 
 3669  3684     1 
 3669  3688     1 
 3670  3672     1 
 3670  3681     1 
 3670  3683     1 
 3670  3686     1 
 3670  3687     1 
 3671  3675     1 
 3671  3676     1 
 3671  3683     1 
 3671  3686     1 
 3671  3687     1 
 3672  3677     1 
 3672  3680     1 
 3672  3682     1 
 3672  3685     1 
 3673  3675     1 
 3673  3676     1 
 3673  3681     1 
 3674  3678     1 
 3674  3679     1 
 3674  3681     1 
 3675  3677     1 
 3675  3680     1 
 3676  3682     1 
 3677  3681     1 
 3678  3680     1 
 3679  3680     1 
 3681  3685     1 
 3683  3690     1 
 3683  3691     1 
 3683  3692     1 
 3684  3686     1 
 3684  3687     1 
 3684  3689     1 
 3685  3689     1 
 3686  3688     1 
 3687  3688     1 
 3688  3693     1 
 3689  3694     1 
 3689  3695     1 
 3689  3696     1 
 3690  3693     1 
 3691  3693     1 
 3692  3697     1 
 3692  3698     1 
 3692  3716     1 
 3693  3699     1 
 3693  3717     1 
 3693  3718     1 
 3693  3721     1 
 3694  3697     1 
 3694  3698     1 
 3694  3716     1 
 3695  3697     1 
 3695  3698     1 
 3695  3716     1 
 3696  3700     1 
 3696  3701     1 
 3696  3719     1 
 3696  3720     1 
 3696  3722     1 
 3697  3699     1 
 3697  3717     1 
 3697  3718     1 
 3697  3721     1 
 3698  3702     1 
 3698  3715     1 
 3698  3717     1 
 3698  3719     1 
 3698  3720     1 
 3698  3721     1 
 3699  3703     1 
 3699  3704     1 
 3699  3705     1 
 3699  3714     1 
 3699  3717     1 
 3699  3721     1 
 3700  3702     1 
 3700  3715     1 
 3700  3716     1 
 3700  3719     1 
 3700  3720     1 
 3701  3706     1 
 3701  3710     1 
 3701  3716     1 
 3701  3719     1 
 3701  3720     1 
 3702  3706     1 
 3702  3714     1 
 3702  3718     1 
 3703  3705     1 
 3703  3715     1 
 3704  3707     1 
 3704  3708     1 
 3704  3714     1 
 3705  3709     1 
 3705  3710     1 
 3706  3711     1 
 3706  3714     1 
 3707  3709     1 
 3707  3710     1 
 3707  3715     1 
 3708  3712     1 
 3708  3713     1 
 3708  3715     1 
 3709  3711     1 
 3709  3714     1 
 3711  3715     1 
 3712  3714     1 
 3713  3714     1 
 3715  3718     1 
 3716  3723     1 
 3716  3724     1 
 3716  3725     1 
 3717  3719     1 
 3717  3720     1 
 3717  3722     1 
 3718  3722     1 
 3719  3721     1 
 3720  3721     1 
 3721  3726     1 
 3722  3727     1 
 3722  3728     1 
 3722  3729     1 
 3723  3726     1 
 3724  3726     1 
 3725  3730     1 
 3725  3731     1 
 3725  3746     1 
 3726  3732     1 
 3726  3747     1 
 3726  3748     1 
 3726  3751     1 
 3727  3730     1 
 3727  3731     1 
 3727  3746     1 
 3728  3730     1 
 3728  3731     1 
 3728  3746     1 
 3729  3733     1 
 3729  3734     1 
 3729  3749     1 
 3729  3750     1 
 3729  3752     1 
 3730  3732     1 
 3730  3747     1 
 3730  3748     1 
 3730  3751     1 
 3731  3735     1 
 3731  3744     1 
 3731  3747     1 
 3731  3749     1 
 3731  3750     1 
 3731  3751     1 
 3732  3736     1 
 3732  3737     1 
 3732  3743     1 
 3732  3745     1 
 3732  3747     1 
 3732  3751     1 
 3733  3735     1 
 3733  3744     1 
 3733  3746     1 
 3733  3749     1 
 3733  3750     1 
 3734  3738     1 
 3734  3739     1 
 3734  3746     1 
 3734  3749     1 
 3734  3750     1 
 3735  3740     1 
 3735  3743     1 
 3735  3745     1 
 3735  3748     1 
 3736  3738     1 
 3736  3739     1 
 3736  3744     1 
 3737  3741     1 
 3737  3742     1 
 3737  3744     1 
 3738  3740     1 
 3738  3743     1 
 3739  3745     1 
 3740  3744     1 
 3741  3743     1 
 3742  3743     1 
 3744  3748     1 
 3746  3753     1 
 3746  3754     1 
 3746  3755     1 
 3747  3749     1 
 3747  3750     1 
 3747  3752     1 
 3748  3752     1 
 3749  3751     1 
 3750  3751     1 
 3751  3756     1 
 3752  3757     1 
 3752  3758     1 
 3752  3759     1 
 3753  3756     1 
 3754  3756     1 
 3755  3760     1 
 3755  3761     1 
 3755  3778     1 
 3756  3762     1 
 3756  3779     1 
 3756  3780     1 
 3756  3783     1 
 3757  3760     1 
 3757  3761     1 
 3757  3778     1 
 3758  3760     1 
 3758  3761     1 
 3758  3778     1 
 3759  3763     1 
 3759  3764     1 
 3759  3781     1 
 3759  3782     1 
 3759  3784     1 
 3760  3762     1 
 3760  3779     1 
 3760  3780     1 
 3760  3783     1 
 3761  3765     1 
 3761  3776     1 
 3761  3779     1 
 3761  3781     1 
 3761  3782     1 
 3761  3783     1 
 3762  3766     1 
 3762  3767     1 
 3762  3774     1 
 3762  3777     1 
 3762  3779     1 
 3762  3783     1 
 3763  3765     1 
 3763  3776     1 
 3763  3778     1 
 3763  3781     1 
 3763  3782     1 
 3764  3768     1 
 3764  3772     1 
 3764  3775     1 
 3764  3778     1 
 3764  3781     1 
 3764  3782     1 
 3765  3769     1 
 3765  3770     1 
 3765  3771     1 
 3765  3773     1 
 3765  3774     1 
 3765  3777     1 
 3765  3780     1 
 3766  3768     1 
 3766  3772     1 
 3766  3776     1 
 3767  3775     1 
 3767  3776     1 
 3768  3773     1 
 3768  3774     1 
 3769  3772     1 
 3770  3772     1 
 3771  3772     1 
 3772  3777     1 
 3773  3775     1 
 3773  3776     1 
 3775  3777     1 
 3776  3780     1 
 3778  3785     1 
 3778  3786     1 
 3778  3787     1 
 3779  3781     1 
 3779  3782     1 
 3779  3784     1 
 3780  3784     1 
 3781  3783     1 
 3782  3783     1 
 3783  3788     1 
 3784  3789     1 
 3784  3790     1 
 3784  3791     1 
 3785  3788     1 
 3786  3788     1 
 3787  3792     1 
 3787  3793     1 
 3787  3808     1 
 3788  3794     1 
 3788  3809     1 
 3788  3810     1 
 3788  3813     1 
 3789  3792     1 
 3789  3793     1 
 3789  3808     1 
 3790  3792     1 
 3790  3793     1 
 3790  3808     1 
 3791  3795     1 
 3791  3796     1 
 3791  3811     1 
 3791  3812     1 
 3791  3814     1 
 3792  3794     1 
 3792  3809     1 
 3792  3810     1 
 3792  3813     1 
 3793  3797     1 
 3793  3806     1 
 3793  3809     1 
 3793  3811     1 
 3793  3812     1 
 3793  3813     1 
 3794  3798     1 
 3794  3799     1 
 3794  3805     1 
 3794  3807     1 
 3794  3809     1 
 3794  3813     1 
 3795  3797     1 
 3795  3806     1 
 3795  3808     1 
 3795  3811     1 
 3795  3812     1 
 3796  3800     1 
 3796  3801     1 
 3796  3808     1 
 3796  3811     1 
 3796  3812     1 
 3797  3802     1 
 3797  3805     1 
 3797  3807     1 
 3797  3810     1 
 3798  3800     1 
 3798  3801     1 
 3798  3806     1 
 3799  3803     1 
 3799  3804     1 
 3799  3806     1 
 3800  3802     1 
 3800  3805     1 
 3801  3807     1 
 3802  3806     1 
 3803  3805     1 
 3804  3805     1 
 3806  3810     1 
 3808  3815     1 
 3808  3816     1 
 3808  3817     1 
 3809  3811     1 
 3809  3812     1 
 3809  3814     1 
 3810  3814     1 
 3811  3813     1 
 3812  3813     1 
 3813  3818     1 
 3814  3819     1 
 3814  3820     1 
 3814  3821     1 
 3815  3818     1 
 3816  3818     1 
 3817  3822     1 
 3817  3823     1 
 3817  3838     1 
 3818  3824     1 
 3818  3839     1 
 3818  3840     1 
 3818  3843     1 
 3819  3822     1 
 3819  3823     1 
 3819  3838     1 
 3820  3822     1 
 3820  3823     1 
 3820  3838     1 
 3821  3825     1 
 3821  3826     1 
 3821  3841     1 
 3821  3842     1 
 3821  3844     1 
 3822  3824     1 
 3822  3839     1 
 3822  3840     1 
 3822  3843     1 
 3823  3827     1 
 3823  3836     1 
 3823  3839     1 
 3823  3841     1 
 3823  3842     1 
 3823  3843     1 
 3824  3828     1 
 3824  3829     1 
 3824  3835     1 
 3824  3837     1 
 3824  3839     1 
 3824  3843     1 
 3825  3827     1 
 3825  3836     1 
 3825  3838     1 
 3825  3841     1 
 3825  3842     1 
 3826  3830     1 
 3826  3831     1 
 3826  3838     1 
 3826  3841     1 
 3826  3842     1 
 3827  3832     1 
 3827  3835     1 
 3827  3837     1 
 3827  3840     1 
 3828  3830     1 
 3828  3831     1 
 3828  3836     1 
 3829  3833     1 
 3829  3834     1 
 3829  3836     1 
 3830  3832     1 
 3830  3835     1 
 3831  3837     1 
 3832  3836     1 
 3833  3835     1 
 3834  3835     1 
 3836  3840     1 
 3838  3845     1 
 3838  3846     1 
 3838  3847     1 
 3839  3841     1 
 3839  3842     1 
 3839  3844     1 
 3840  3844     1 
 3841  3843     1 
 3842  3843     1 
 3843  3848     1 
 3844  3849     1 
 3844  3850     1 
 3844  3851     1 
 3845  3848     1 
 3846  3848     1 
 3847  3852     1 
 3847  3853     1 
 3847  3868     1 
 3848  3854     1 
 3848  3869     1 
 3848  3870     1 
 3848  3873     1 
 3849  3852     1 
 3849  3853     1 
 3849  3868     1 
 3850  3852     1 
 3850  3853     1 
 3850  3868     1 
 3851  3855     1 
 3851  3856     1 
 3851  3871     1 
 3851  3872     1 
 3851  3874     1 
 3852  3854     1 
 3852  3869     1 
 3852  3870     1 
 3852  3873     1 
 3853  3857     1 
 3853  3866     1 
 3853  3869     1 
 3853  3871     1 
 3853  3872     1 
 3853  3873     1 
 3854  3858     1 
 3854  3859     1 
 3854  3865     1 
 3854  3867     1 
 3854  3869     1 
 3854  3873     1 
 3855  3857     1 
 3855  3866     1 
 3855  3868     1 
 3855  3871     1 
 3855  3872     1 
 3856  3860     1 
 3856  3861     1 
 3856  3868     1 
 3856  3871     1 
 3856  3872     1 
 3857  3862     1 
 3857  3865     1 
 3857  3867     1 
 3857  3870     1 
 3858  3860     1 
 3858  3861     1 
 3858  3866     1 
 3859  3863     1 
 3859  3864     1 
 3859  3866     1 
 3860  3862     1 
 3860  3865     1 
 3861  3867     1 
 3862  3866     1 
 3863  3865     1 
 3864  3865     1 
 3866  3870     1 
 3868  3875     1 
 3868  3876     1 
 3868  3877     1 
 3869  3871     1 
 3869  3872     1 
 3869  3874     1 
 3870  3874     1 
 3871  3873     1 
 3872  3873     1 
 3873  3878     1 
 3874  3879     1 
 3874  3880     1 
 3874  3881     1 
 3875  3878     1 
 3876  3878     1 
 3877  3882     1 
 3877  3883     1 
 3877  3900     1 
 3878  3884     1 
 3878  3901     1 
 3878  3902     1 
 3878  3905     1 
 3879  3882     1 
 3879  3883     1 
 3879  3900     1 
 3880  3882     1 
 3880  3883     1 
 3880  3900     1 
 3881  3885     1 
 3881  3886     1 
 3881  3903     1 
 3881  3904     1 
 3881  3906     1 
 3882  3884     1 
 3882  3901     1 
 3882  3902     1 
 3882  3905     1 
 3883  3887     1 
 3883  3899     1 
 3883  3901     1 
 3883  3903     1 
 3883  3904     1 
 3883  3905     1 
 3884  3888     1 
 3884  3889     1 
 3884  3890     1 
 3884  3898     1 
 3884  3901     1 
 3884  3905     1 
 3885  3887     1 
 3885  3899     1 
 3885  3900     1 
 3885  3903     1 
 3885  3904     1 
 3886  3891     1 
 3886  3896     1 
 3886  3900     1 
 3886  3903     1 
 3886  3904     1 
 3887  3891     1 
 3887  3898     1 
 3887  3902     1 
 3888  3890     1 
 3888  3899     1 
 3889  3892     1 
 3889  3895     1 
 3889  3898     1 
 3890  3893     1 
 3890  3894     1 
 3890  3896     1 
 3891  3897     1 
 3891  3898     1 
 3892  3896     1 
 3892  3899     1 
 3893  3895     1 
 3894  3895     1 
 3895  3899     1 
 3897  3899     1 
 3899  3902     1 
 3900  3907     1 
 3900  3908     1 
 3900  3909     1 
 3901  3903     1 
 3901  3904     1 
 3901  3906     1 
 3902  3906     1 
 3903  3905     1 
 3904  3905     1 
 3905  3910     1 
 3906  3911     1 
 3906  3912     1 
 3906  3913     1 
 3907  3910     1 
 3908  3910     1 
 3909  3914     1 
 3909  3915     1 
 3909  3933     1 
 3910  3916     1 
 3910  3934     1 
 3910  3935     1 
 3910  3938     1 
 3911  3914     1 
 3911  3915     1 
 3911  3933     1 
 3912  3914     1 
 3912  3915     1 
 3912  3933     1 
 3913  3917     1 
 3913  3918     1 
 3913  3936     1 
 3913  3937     1 
 3913  3939     1 
 3914  3916     1 
 3914  3934     1 
 3914  3935     1 
 3914  3938     1 
 3915  3919     1 
 3915  3932     1 
 3915  3934     1 
 3915  3936     1 
 3915  3937     1 
 3915  3938     1 
 3916  3920     1 
 3916  3921     1 
 3916  3922     1 
 3916  3931     1 
 3916  3934     1 
 3916  3938     1 
 3917  3919     1 
 3917  3932     1 
 3917  3933     1 
 3917  3936     1 
 3917  3937     1 
 3918  3923     1 
 3918  3927     1 
 3918  3933     1 
 3918  3936     1 
 3918  3937     1 
 3919  3923     1 
 3919  3931     1 
 3919  3935     1 
 3920  3922     1 
 3920  3932     1 
 3921  3924     1 
 3921  3925     1 
 3921  3931     1 
 3922  3926     1 
 3922  3927     1 
 3923  3928     1 
 3923  3931     1 
 3924  3926     1 
 3924  3927     1 
 3924  3932     1 
 3925  3929     1 
 3925  3930     1 
 3925  3932     1 
 3926  3928     1 
 3926  3931     1 
 3928  3932     1 
 3929  3931     1 
 3930  3931     1 
 3932  3935     1 
 3933  3940     1 
 3933  3941     1 
 3933  3942     1 
 3934  3936     1 
 3934  3937     1 
 3934  3939     1 
 3935  3939     1 
 3936  3938     1 
 3937  3938     1 
 3938  3943     1 
 3939  3944     1 
 3939  3945     1 
 3939  3946     1 
 3940  3943     1 
 3941  3943     1 
 3942  3947     1 
 3942  3948     1 
 3942  3965     1 
 3943  3949     1 
 3943  3966     1 
 3943  3967     1 
 3943  3970     1 
 3944  3947     1 
 3944  3948     1 
 3944  3965     1 
 3945  3947     1 
 3945  3948     1 
 3945  3965     1 
 3946  3950     1 
 3946  3951     1 
 3946  3968     1 
 3946  3969     1 
 3946  3971     1 
 3947  3949     1 
 3947  3966     1 
 3947  3967     1 
 3947  3970     1 
 3948  3952     1 
 3948  3963     1 
 3948  3966     1 
 3948  3968     1 
 3948  3969     1 
 3948  3970     1 
 3949  3953     1 
 3949  3954     1 
 3949  3961     1 
 3949  3964     1 
 3949  3966     1 
 3949  3970     1 
 3950  3952     1 
 3950  3963     1 
 3950  3965     1 
 3950  3968     1 
 3950  3969     1 
 3951  3955     1 
 3951  3959     1 
 3951  3962     1 
 3951  3965     1 
 3951  3968     1 
 3951  3969     1 
 3952  3956     1 
 3952  3957     1 
 3952  3958     1 
 3952  3960     1 
 3952  3961     1 
 3952  3964     1 
 3952  3967     1 
 3953  3955     1 
 3953  3959     1 
 3953  3963     1 
 3954  3962     1 
 3954  3963     1 
 3955  3960     1 
 3955  3961     1 
 3956  3959     1 
 3957  3959     1 
 3958  3959     1 
 3959  3964     1 
 3960  3962     1 
 3960  3963     1 
 3962  3964     1 
 3963  3967     1 
 3965  3972     1 
 3965  3973     1 
 3965  3974     1 
 3966  3968     1 
 3966  3969     1 
 3966  3971     1 
 3967  3971     1 
 3968  3970     1 
 3969  3970     1 
 3970  3975     1 
 3971  3976     1 
 3971  3977     1 
 3971  3978     1 
 3972  3975     1 
 3973  3975     1 
 3974  3979     1 
 3974  3980     1 
 3974  3995     1 
 3975  3981     1 
 3975  3996     1 
 3975  3997     1 
 3975  4000     1 
 3976  3979     1 
 3976  3980     1 
 3976  3995     1 
 3977  3979     1 
 3977  3980     1 
 3977  3995     1 
 3978  3982     1 
 3978  3983     1 
 3978  3998     1 
 3978  3999     1 
 3978  4001     1 
 3979  3981     1 
 3979  3996     1 
 3979  3997     1 
 3979  4000     1 
 3980  3984     1 
 3980  3993     1 
 3980  3996     1 
 3980  3998     1 
 3980  3999     1 
 3980  4000     1 
 3981  3985     1 
 3981  3986     1 
 3981  3992     1 
 3981  3994     1 
 3981  3996     1 
 3981  4000     1 
 3982  3984     1 
 3982  3993     1 
 3982  3995     1 
 3982  3998     1 
 3982  3999     1 
 3983  3987     1 
 3983  3988     1 
 3983  3995     1 
 3983  3998     1 
 3983  3999     1 
 3984  3989     1 
 3984  3992     1 
 3984  3994     1 
 3984  3997     1 
 3985  3987     1 
 3985  3988     1 
 3985  3993     1 
 3986  3990     1 
 3986  3991     1 
 3986  3993     1 
 3987  3989     1 
 3987  3992     1 
 3988  3994     1 
 3989  3993     1 
 3990  3992     1 
 3991  3992     1 
 3993  3997     1 
 3995  4002     1 
 3995  4003     1 
 3995  4004     1 
 3996  3998     1 
 3996  3999     1 
 3996  4001     1 
 3997  4001     1 
 3998  4000     1 
 3999  4000     1 
 4000  4005     1 
 4001  4006     1 
 4001  4007     1 
 4001  4008     1 
 4002  4005     1 
 4003  4005     1 
 4004  4009     1 
 4004  4010     1 
 4004  4025     1 
 4005  4011     1 
 4005  4026     1 
 4005  4027     1 
 4005  4030     1 
 4006  4009     1 
 4006  4010     1 
 4006  4025     1 
 4007  4009     1 
 4007  4010     1 
 4007  4025     1 
 4008  4012     1 
 4008  4013     1 
 4008  4028     1 
 4008  4029     1 
 4008  4031     1 
 4009  4011     1 
 4009  4026     1 
 4009  4027     1 
 4009  4030     1 
 4010  4014     1 
 4010  4023     1 
 4010  4026     1 
 4010  4028     1 
 4010  4029     1 
 4010  4030     1 
 4011  4015     1 
 4011  4016     1 
 4011  4022     1 
 4011  4024     1 
 4011  4026     1 
 4011  4030     1 
 4012  4014     1 
 4012  4023     1 
 4012  4025     1 
 4012  4028     1 
 4012  4029     1 
 4013  4017     1 
 4013  4018     1 
 4013  4025     1 
 4013  4028     1 
 4013  4029     1 
 4014  4019     1 
 4014  4022     1 
 4014  4024     1 
 4014  4027     1 
 4015  4017     1 
 4015  4018     1 
 4015  4023     1 
 4016  4020     1 
 4016  4021     1 
 4016  4023     1 
 4017  4019     1 
 4017  4022     1 
 4018  4024     1 
 4019  4023     1 
 4020  4022     1 
 4021  4022     1 
 4023  4027     1 
 4025  4032     1 
 4025  4033     1 
 4025  4034     1 
 4026  4028     1 
 4026  4029     1 
 4026  4031     1 
 4027  4031     1 
 4028  4030     1 
 4029  4030     1 
 4030  4035     1 
 4031  4036     1 
 4031  4037     1 
 4031  4038     1 
 4032  4035     1 
 4033  4035     1 
 4034  4039     1 
 4034  4040     1 
 4034  4058     1 
 4035  4041     1 
 4035  4059     1 
 4035  4060     1 
 4035  4063     1 
 4036  4039     1 
 4036  4040     1 
 4036  4058     1 
 4037  4039     1 
 4037  4040     1 
 4037  4058     1 
 4038  4042     1 
 4038  4043     1 
 4038  4061     1 
 4038  4062     1 
 4038  4064     1 
 4039  4041     1 
 4039  4059     1 
 4039  4060     1 
 4039  4063     1 
 4040  4044     1 
 4040  4057     1 
 4040  4059     1 
 4040  4061     1 
 4040  4062     1 
 4040  4063     1 
 4041  4045     1 
 4041  4046     1 
 4041  4047     1 
 4041  4056     1 
 4041  4059     1 
 4041  4063     1 
 4042  4044     1 
 4042  4057     1 
 4042  4058     1 
 4042  4061     1 
 4042  4062     1 
 4043  4048     1 
 4043  4052     1 
 4043  4058     1 
 4043  4061     1 
 4043  4062     1 
 4044  4048     1 
 4044  4056     1 
 4044  4060     1 
 4045  4047     1 
 4045  4057     1 
 4046  4049     1 
 4046  4050     1 
 4046  4056     1 
 4047  4051     1 
 4047  4052     1 
 4048  4053     1 
 4048  4056     1 
 4049  4051     1 
 4049  4052     1 
 4049  4057     1 
 4050  4054     1 
 4050  4055     1 
 4050  4057     1 
 4051  4053     1 
 4051  4056     1 
 4053  4057     1 
 4054  4056     1 
 4055  4056     1 
 4057  4060     1 
 4058  4065     1 
 4058  4066     1 
 4058  4067     1 
 4059  4061     1 
 4059  4062     1 
 4059  4064     1 
 4060  4064     1 
 4061  4063     1 
 4062  4063     1 
 4063  4068     1 
 4064  4069     1 
 4064  4070     1 
 4064  4071     1 
 4065  4068     1 
 4066  4068     1 
 4067  4072     1 
 4067  4073     1 
 4067  4090     1 
 4068  4074     1 
 4068  4091     1 
 4068  4092     1 
 4068  4095     1 
 4069  4072     1 
 4069  4073     1 
 4069  4090     1 
 4070  4072     1 
 4070  4073     1 
 4070  4090     1 
 4071  4075     1 
 4071  4076     1 
 4071  4093     1 
 4071  4094     1 
 4071  4096     1 
 4072  4074     1 
 4072  4091     1 
 4072  4092     1 
 4072  4095     1 
 4073  4077     1 
 4073  4089     1 
 4073  4091     1 
 4073  4093     1 
 4073  4094     1 
 4073  4095     1 
 4074  4078     1 
 4074  4079     1 
 4074  4080     1 
 4074  4088     1 
 4074  4091     1 
 4074  4095     1 
 4075  4077     1 
 4075  4089     1 
 4075  4090     1 
 4075  4093     1 
 4075  4094     1 
 4076  4081     1 
 4076  4086     1 
 4076  4090     1 
 4076  4093     1 
 4076  4094     1 
 4077  4081     1 
 4077  4088     1 
 4077  4092     1 
 4078  4080     1 
 4078  4089     1 
 4079  4082     1 
 4079  4085     1 
 4079  4088     1 
 4080  4083     1 
 4080  4084     1 
 4080  4086     1 
 4081  4087     1 
 4081  4088     1 
 4082  4086     1 
 4082  4089     1 
 4083  4085     1 
 4084  4085     1 
 4085  4089     1 
 4087  4089     1 
 4089  4092     1 
 4090  4097     1 
 4090  4098     1 
 4090  4099     1 
 4091  4093     1 
 4091  4094     1 
 4091  4096     1 
 4092  4096     1 
 4093  4095     1 
 4094  4095     1 
 4095  4100     1 
 4096  4101     1 
 4096  4102     1 
 4096  4103     1 
 4097  4100     1 
 4098  4100     1 
 4099  4104     1 
 4099  4105     1 
 4099  4122     1 
 4100  4106     1 
 4100  4123     1 
 4100  4124     1 
 4100  4127     1 
 4101  4104     1 
 4101  4105     1 
 4101  4122     1 
 4102  4104     1 
 4102  4105     1 
 4102  4122     1 
 4103  4107     1 
 4103  4108     1 
 4103  4125     1 
 4103  4126     1 
 4103  4128     1 
 4104  4106     1 
 4104  4123     1 
 4104  4124     1 
 4104  4127     1 
 4105  4109     1 
 4105  4121     1 
 4105  4123     1 
 4105  4125     1 
 4105  4126     1 
 4105  4127     1 
 4106  4110     1 
 4106  4111     1 
 4106  4112     1 
 4106  4120     1 
 4106  4123     1 
 4106  4127     1 
 4107  4109     1 
 4107  4121     1 
 4107  4122     1 
 4107  4125     1 
 4107  4126     1 
 4108  4113     1 
 4108  4118     1 
 4108  4122     1 
 4108  4125     1 
 4108  4126     1 
 4109  4113     1 
 4109  4120     1 
 4109  4124     1 
 4110  4112     1 
 4110  4121     1 
 4111  4114     1 
 4111  4117     1 
 4111  4120     1 
 4112  4115     1 
 4112  4116     1 
 4112  4118     1 
 4113  4119     1 
 4113  4120     1 
 4114  4118     1 
 4114  4121     1 
 4115  4117     1 
 4116  4117     1 
 4117  4121     1 
 4119  4121     1 
 4121  4124     1 
 4122  4129     1 
 4122  4130     1 
 4122  4131     1 
 4123  4125     1 
 4123  4126     1 
 4123  4128     1 
 4124  4128     1 
 4125  4127     1 
 4126  4127     1 
 4127  4132     1 
 4128  4133     1 
 4128  4134     1 
 4128  4135     1 
 4129  4132     1 
 4130  4132     1 
 4131  4136     1 
 4131  4137     1 
 4131  4154     1 
 4132  4138     1 
 4132  4155     1 
 4132  4156     1 
 4132  4159     1 
 4133  4136     1 
 4133  4137     1 
 4133  4154     1 
 4134  4136     1 
 4134  4137     1 
 4134  4154     1 
 4135  4139     1 
 4135  4140     1 
 4135  4157     1 
 4135  4158     1 
 4135  4160     1 
 4136  4138     1 
 4136  4155     1 
 4136  4156     1 
 4136  4159     1 
 4137  4141     1 
 4137  4153     1 
 4137  4155     1 
 4137  4157     1 
 4137  4158     1 
 4137  4159     1 
 4138  4142     1 
 4138  4143     1 
 4138  4144     1 
 4138  4152     1 
 4138  4155     1 
 4138  4159     1 
 4139  4141     1 
 4139  4153     1 
 4139  4154     1 
 4139  4157     1 
 4139  4158     1 
 4140  4145     1 
 4140  4150     1 
 4140  4154     1 
 4140  4157     1 
 4140  4158     1 
 4141  4145     1 
 4141  4152     1 
 4141  4156     1 
 4142  4144     1 
 4142  4153     1 
 4143  4146     1 
 4143  4149     1 
 4143  4152     1 
 4144  4147     1 
 4144  4148     1 
 4144  4150     1 
 4145  4151     1 
 4145  4152     1 
 4146  4150     1 
 4146  4153     1 
 4147  4149     1 
 4148  4149     1 
 4149  4153     1 
 4151  4153     1 
 4153  4156     1 
 4154  4161     1 
 4154  4162     1 
 4154  4163     1 
 4155  4157     1 
 4155  4158     1 
 4155  4160     1 
 4156  4160     1 
 4157  4159     1 
 4158  4159     1 
 4159  4164     1 
 4160  4165     1 
 4160  4166     1 
 4160  4167     1 
 4161  4164     1 
 4162  4164     1 
 4163  4168     1 
 4163  4169     1 
 4163  4186     1 
 4164  4170     1 
 4164  4187     1 
 4164  4188     1 
 4164  4191     1 
 4165  4168     1 
 4165  4169     1 
 4165  4186     1 
 4166  4168     1 
 4166  4169     1 
 4166  4186     1 
 4167  4171     1 
 4167  4172     1 
 4167  4189     1 
 4167  4190     1 
 4167  4192     1 
 4168  4170     1 
 4168  4187     1 
 4168  4188     1 
 4168  4191     1 
 4169  4173     1 
 4169  4184     1 
 4169  4187     1 
 4169  4189     1 
 4169  4190     1 
 4169  4191     1 
 4170  4174     1 
 4170  4175     1 
 4170  4182     1 
 4170  4185     1 
 4170  4187     1 
 4170  4191     1 
 4171  4173     1 
 4171  4184     1 
 4171  4186     1 
 4171  4189     1 
 4171  4190     1 
 4172  4176     1 
 4172  4180     1 
 4172  4183     1 
 4172  4186     1 
 4172  4189     1 
 4172  4190     1 
 4173  4177     1 
 4173  4178     1 
 4173  4179     1 
 4173  4181     1 
 4173  4182     1 
 4173  4185     1 
 4173  4188     1 
 4174  4176     1 
 4174  4180     1 
 4174  4184     1 
 4175  4183     1 
 4175  4184     1 
 4176  4181     1 
 4176  4182     1 
 4177  4180     1 
 4178  4180     1 
 4179  4180     1 
 4180  4185     1 
 4181  4183     1 
 4181  4184     1 
 4183  4185     1 
 4184  4188     1 
 4186  4193     1 
 4186  4194     1 
 4186  4195     1 
 4187  4189     1 
 4187  4190     1 
 4187  4192     1 
 4188  4192     1 
 4189  4191     1 
 4190  4191     1 
 4191  4196     1 
 4192  4197     1 
 4192  4198     1 
 4192  4199     1 
 4193  4196     1 
 4194  4196     1 
 4195  4200     1 
 4195  4201     1 
 4195  4219     1 
 4196  4202     1 
 4196  4220     1 
 4196  4221     1 
 4196  4224     1 
 4197  4200     1 
 4197  4201     1 
 4197  4219     1 
 4198  4200     1 
 4198  4201     1 
 4198  4219     1 
 4199  4203     1 
 4199  4204     1 
 4199  4222     1 
 4199  4223     1 
 4199  4225     1 
 4200  4202     1 
 4200  4220     1 
 4200  4221     1 
 4200  4224     1 
 4201  4205     1 
 4201  4218     1 
 4201  4220     1 
 4201  4222     1 
 4201  4223     1 
 4201  4224     1 
 4202  4206     1 
 4202  4207     1 
 4202  4208     1 
 4202  4217     1 
 4202  4220     1 
 4202  4224     1 
 4203  4205     1 
 4203  4218     1 
 4203  4219     1 
 4203  4222     1 
 4203  4223     1 
 4204  4209     1 
 4204  4213     1 
 4204  4219     1 
 4204  4222     1 
 4204  4223     1 
 4205  4209     1 
 4205  4217     1 
 4205  4221     1 
 4206  4208     1 
 4206  4218     1 
 4207  4210     1 
 4207  4211     1 
 4207  4217     1 
 4208  4212     1 
 4208  4213     1 
 4209  4214     1 
 4209  4217     1 
 4210  4212     1 
 4210  4213     1 
 4210  4218     1 
 4211  4215     1 
 4211  4216     1 
 4211  4218     1 
 4212  4214     1 
 4212  4217     1 
 4214  4218     1 
 4215  4217     1 
 4216  4217     1 
 4218  4221     1 
 4219  4226     1 
 4219  4227     1 
 4219  4228     1 
 4220  4222     1 
 4220  4223     1 
 4220  4225     1 
 4221  4225     1 
 4222  4224     1 
 4223  4224     1 
 4224  4229     1 
 4225  4230     1 
 4225  4231     1 
 4225  4232     1 
 4226  4229     1 
 4227  4229     1 
 4228  4233     1 
 4228  4234     1 
 4228  4252     1 
 4229  4235     1 
 4229  4253     1 
 4229  4254     1 
 4229  4257     1 
 4230  4233     1 
 4230  4234     1 
 4230  4252     1 
 4231  4233     1 
 4231  4234     1 
 4231  4252     1 
 4232  4236     1 
 4232  4237     1 
 4232  4255     1 
 4232  4256     1 
 4232  4258     1 
 4233  4235     1 
 4233  4253     1 
 4233  4254     1 
 4233  4257     1 
 4234  4238     1 
 4234  4251     1 
 4234  4253     1 
 4234  4255     1 
 4234  4256     1 
 4234  4257     1 
 4235  4239     1 
 4235  4240     1 
 4235  4241     1 
 4235  4250     1 
 4235  4253     1 
 4235  4257     1 
 4236  4238     1 
 4236  4251     1 
 4236  4252     1 
 4236  4255     1 
 4236  4256     1 
 4237  4242     1 
 4237  4246     1 
 4237  4252     1 
 4237  4255     1 
 4237  4256     1 
 4238  4242     1 
 4238  4250     1 
 4238  4254     1 
 4239  4241     1 
 4239  4251     1 
 4240  4243     1 
 4240  4244     1 
 4240  4250     1 
 4241  4245     1 
 4241  4246     1 
 4242  4247     1 
 4242  4250     1 
 4243  4245     1 
 4243  4246     1 
 4243  4251     1 
 4244  4248     1 
 4244  4249     1 
 4244  4251     1 
 4245  4247     1 
 4245  4250     1 
 4247  4251     1 
 4248  4250     1 
 4249  4250     1 
 4251  4254     1 
 4252  4259     1 
 4252  4260     1 
 4252  4261     1 
 4253  4255     1 
 4253  4256     1 
 4253  4258     1 
 4254  4258     1 
 4255  4257     1 
 4256  4257     1 
 4257  4262     1 
 4258  4263     1 
 4258  4264     1 
 4258  4265     1 
 4259  4262     1 
 4260  4262     1 
 4261  4266     1 
 4261  4267     1 
 4261  4282     1 
 4262  4268     1 
 4262  4283     1 
 4262  4284     1 
 4262  4287     1 
 4263  4266     1 
 4263  4267     1 
 4263  4282     1 
 4264  4266     1 
 4264  4267     1 
 4264  4282     1 
 4265  4269     1 
 4265  4270     1 
 4265  4285     1 
 4265  4286     1 
 4265  4288     1 
 4266  4268     1 
 4266  4283     1 
 4266  4284     1 
 4266  4287     1 
 4267  4271     1 
 4267  4280     1 
 4267  4283     1 
 4267  4285     1 
 4267  4286     1 
 4267  4287     1 
 4268  4272     1 
 4268  4273     1 
 4268  4279     1 
 4268  4281     1 
 4268  4283     1 
 4268  4287     1 
 4269  4271     1 
 4269  4280     1 
 4269  4282     1 
 4269  4285     1 
 4269  4286     1 
 4270  4274     1 
 4270  4275     1 
 4270  4282     1 
 4270  4285     1 
 4270  4286     1 
 4271  4276     1 
 4271  4279     1 
 4271  4281     1 
 4271  4284     1 
 4272  4274     1 
 4272  4275     1 
 4272  4280     1 
 4273  4277     1 
 4273  4278     1 
 4273  4280     1 
 4274  4276     1 
 4274  4279     1 
 4275  4281     1 
 4276  4280     1 
 4277  4279     1 
 4278  4279     1 
 4280  4284     1 
 4282  4289     1 
 4282  4290     1 
 4282  4291     1 
 4283  4285     1 
 4283  4286     1 
 4283  4288     1 
 4284  4288     1 
 4285  4287     1 
 4286  4287     1 
 4287  4292     1 
 4288  4293     1 
 4288  4294     1 
 4288  4295     1 
 4289  4292     1 
 4290  4292     1 
 4291  4296     1 
 4291  4297     1 
 4291  4315     1 
 4292  4298     1 
 4292  4316     1 
 4292  4317     1 
 4292  4320     1 
 4293  4296     1 
 4293  4297     1 
 4293  4315     1 
 4294  4296     1 
 4294  4297     1 
 4294  4315     1 
 4295  4299     1 
 4295  4300     1 
 4295  4318     1 
 4295  4319     1 
 4295  4321     1 
 4296  4298     1 
 4296  4316     1 
 4296  4317     1 
 4296  4320     1 
 4297  4301     1 
 4297  4314     1 
 4297  4316     1 
 4297  4318     1 
 4297  4319     1 
 4297  4320     1 
 4298  4302     1 
 4298  4303     1 
 4298  4304     1 
 4298  4313     1 
 4298  4316     1 
 4298  4320     1 
 4299  4301     1 
 4299  4314     1 
 4299  4315     1 
 4299  4318     1 
 4299  4319     1 
 4300  4305     1 
 4300  4309     1 
 4300  4315     1 
 4300  4318     1 
 4300  4319     1 
 4301  4305     1 
 4301  4313     1 
 4301  4317     1 
 4302  4304     1 
 4302  4314     1 
 4303  4306     1 
 4303  4307     1 
 4303  4313     1 
 4304  4308     1 
 4304  4309     1 
 4305  4310     1 
 4305  4313     1 
 4306  4308     1 
 4306  4309     1 
 4306  4314     1 
 4307  4311     1 
 4307  4312     1 
 4307  4314     1 
 4308  4310     1 
 4308  4313     1 
 4310  4314     1 
 4311  4313     1 
 4312  4313     1 
 4314  4317     1 
 4315  4322     1 
 4315  4323     1 
 4315  4324     1 
 4316  4318     1 
 4316  4319     1 
 4316  4321     1 
 4317  4321     1 
 4318  4320     1 
 4319  4320     1 
 4320  4325     1 
 4321  4326     1 
 4321  4327     1 
 4321  4328     1 
 4322  4325     1 
 4323  4325     1 
 4324  4329     1 
 4324  4330     1 
 4324  4348     1 
 4325  4331     1 
 4325  4349     1 
 4325  4350     1 
 4325  4353     1 
 4326  4329     1 
 4326  4330     1 
 4326  4348     1 
 4327  4329     1 
 4327  4330     1 
 4327  4348     1 
 4328  4332     1 
 4328  4333     1 
 4328  4351     1 
 4328  4352     1 
 4328  4354     1 
 4329  4331     1 
 4329  4349     1 
 4329  4350     1 
 4329  4353     1 
 4330  4334     1 
 4330  4347     1 
 4330  4349     1 
 4330  4351     1 
 4330  4352     1 
 4330  4353     1 
 4331  4335     1 
 4331  4336     1 
 4331  4337     1 
 4331  4346     1 
 4331  4349     1 
 4331  4353     1 
 4332  4334     1 
 4332  4347     1 
 4332  4348     1 
 4332  4351     1 
 4332  4352     1 
 4333  4338     1 
 4333  4342     1 
 4333  4348     1 
 4333  4351     1 
 4333  4352     1 
 4334  4338     1 
 4334  4346     1 
 4334  4350     1 
 4335  4337     1 
 4335  4347     1 
 4336  4339     1 
 4336  4340     1 
 4336  4346     1 
 4337  4341     1 
 4337  4342     1 
 4338  4343     1 
 4338  4346     1 
 4339  4341     1 
 4339  4342     1 
 4339  4347     1 
 4340  4344     1 
 4340  4345     1 
 4340  4347     1 
 4341  4343     1 
 4341  4346     1 
 4343  4347     1 
 4344  4346     1 
 4345  4346     1 
 4347  4350     1 
 4348  4355     1 
 4348  4356     1 
 4348  4357     1 
 4349  4351     1 
 4349  4352     1 
 4349  4354     1 
 4350  4354     1 
 4351  4353     1 
 4352  4353     1 
 4353  4358     1 
 4354  4359     1 
 4354  4360     1 
 4354  4361     1 
 4355  4358     1 
 4356  4358     1 
 4357  4362     1 
 4357  4363     1 
 4357  4381     1 
 4358  4364     1 
 4358  4382     1 
 4358  4383     1 
 4358  4386     1 
 4359  4362     1 
 4359  4363     1 
 4359  4381     1 
 4360  4362     1 
 4360  4363     1 
 4360  4381     1 
 4361  4365     1 
 4361  4366     1 
 4361  4384     1 
 4361  4385     1 
 4361  4387     1 
 4362  4364     1 
 4362  4382     1 
 4362  4383     1 
 4362  4386     1 
 4363  4367     1 
 4363  4380     1 
 4363  4382     1 
 4363  4384     1 
 4363  4385     1 
 4363  4386     1 
 4364  4368     1 
 4364  4369     1 
 4364  4370     1 
 4364  4379     1 
 4364  4382     1 
 4364  4386     1 
 4365  4367     1 
 4365  4380     1 
 4365  4381     1 
 4365  4384     1 
 4365  4385     1 
 4366  4371     1 
 4366  4375     1 
 4366  4381     1 
 4366  4384     1 
 4366  4385     1 
 4367  4371     1 
 4367  4379     1 
 4367  4383     1 
 4368  4370     1 
 4368  4380     1 
 4369  4372     1 
 4369  4373     1 
 4369  4379     1 
 4370  4374     1 
 4370  4375     1 
 4371  4376     1 
 4371  4379     1 
 4372  4374     1 
 4372  4375     1 
 4372  4380     1 
 4373  4377     1 
 4373  4378     1 
 4373  4380     1 
 4374  4376     1 
 4374  4379     1 
 4376  4380     1 
 4377  4379     1 
 4378  4379     1 
 4380  4383     1 
 4381  4388     1 
 4381  4389     1 
 4381  4390     1 
 4382  4384     1 
 4382  4385     1 
 4382  4387     1 
 4383  4387     1 
 4384  4386     1 
 4385  4386     1 
 4386  4391     1 
 4387  4392     1 
 4387  4393     1 
 4387  4394     1 
 4388  4391     1 
 4389  4391     1 
 4390  4395     1 
 4390  4396     1 
 4390  4414     1 
 4391  4397     1 
 4391  4415     1 
 4391  4416     1 
 4391  4419     1 
 4392  4395     1 
 4392  4396     1 
 4392  4414     1 
 4393  4395     1 
 4393  4396     1 
 4393  4414     1 
 4394  4398     1 
 4394  4399     1 
 4394  4417     1 
 4394  4418     1 
 4394  4420     1 
 4395  4397     1 
 4395  4415     1 
 4395  4416     1 
 4395  4419     1 
 4396  4400     1 
 4396  4413     1 
 4396  4415     1 
 4396  4417     1 
 4396  4418     1 
 4396  4419     1 
 4397  4401     1 
 4397  4402     1 
 4397  4403     1 
 4397  4412     1 
 4397  4415     1 
 4397  4419     1 
 4398  4400     1 
 4398  4413     1 
 4398  4414     1 
 4398  4417     1 
 4398  4418     1 
 4399  4404     1 
 4399  4408     1 
 4399  4414     1 
 4399  4417     1 
 4399  4418     1 
 4400  4404     1 
 4400  4412     1 
 4400  4416     1 
 4401  4403     1 
 4401  4413     1 
 4402  4405     1 
 4402  4406     1 
 4402  4412     1 
 4403  4407     1 
 4403  4408     1 
 4404  4409     1 
 4404  4412     1 
 4405  4407     1 
 4405  4408     1 
 4405  4413     1 
 4406  4410     1 
 4406  4411     1 
 4406  4413     1 
 4407  4409     1 
 4407  4412     1 
 4409  4413     1 
 4410  4412     1 
 4411  4412     1 
 4413  4416     1 
 4414  4421     1 
 4414  4422     1 
 4414  4423     1 
 4415  4417     1 
 4415  4418     1 
 4415  4420     1 
 4416  4420     1 
 4417  4419     1 
 4418  4419     1 
 4419  4424     1 
 4420  4425     1 
 4420  4426     1 
 4420  4427     1 
 4421  4424     1 
 4422  4424     1 
 4423  4428     1 
 4423  4429     1 
 4423  4447     1 
 4424  4430     1 
 4424  4448     1 
 4424  4449     1 
 4424  4452     1 
 4425  4428     1 
 4425  4429     1 
 4425  4447     1 
 4426  4428     1 
 4426  4429     1 
 4426  4447     1 
 4427  4431     1 
 4427  4432     1 
 4427  4450     1 
 4427  4451     1 
 4427  4453     1 
 4428  4430     1 
 4428  4448     1 
 4428  4449     1 
 4428  4452     1 
 4429  4433     1 
 4429  4446     1 
 4429  4448     1 
 4429  4450     1 
 4429  4451     1 
 4429  4452     1 
 4430  4434     1 
 4430  4435     1 
 4430  4436     1 
 4430  4445     1 
 4430  4448     1 
 4430  4452     1 
 4431  4433     1 
 4431  4446     1 
 4431  4447     1 
 4431  4450     1 
 4431  4451     1 
 4432  4437     1 
 4432  4441     1 
 4432  4447     1 
 4432  4450     1 
 4432  4451     1 
 4433  4437     1 
 4433  4445     1 
 4433  4449     1 
 4434  4436     1 
 4434  4446     1 
 4435  4438     1 
 4435  4439     1 
 4435  4445     1 
 4436  4440     1 
 4436  4441     1 
 4437  4442     1 
 4437  4445     1 
 4438  4440     1 
 4438  4441     1 
 4438  4446     1 
 4439  4443     1 
 4439  4444     1 
 4439  4446     1 
 4440  4442     1 
 4440  4445     1 
 4442  4446     1 
 4443  4445     1 
 4444  4445     1 
 4446  4449     1 
 4447  4454     1 
 4447  4455     1 
 4447  4456     1 
 4448  4450     1 
 4448  4451     1 
 4448  4453     1 
 4449  4453     1 
 4450  4452     1 
 4451  4452     1 
 4452  4457     1 
 4453  4458     1 
 4453  4459     1 
 4453  4460     1 
 4454  4457     1 
 4455  4457     1 
 4456  4461     1 
 4456  4462     1 
 4456  4477     1 
 4457  4463     1 
 4457  4478     1 
 4457  4479     1 
 4457  4482     1 
 4458  4461     1 
 4458  4462     1 
 4458  4477     1 
 4459  4461     1 
 4459  4462     1 
 4459  4477     1 
 4460  4464     1 
 4460  4465     1 
 4460  4480     1 
 4460  4481     1 
 4460  4483     1 
 4461  4463     1 
 4461  4478     1 
 4461  4479     1 
 4461  4482     1 
 4462  4466     1 
 4462  4475     1 
 4462  4478     1 
 4462  4480     1 
 4462  4481     1 
 4462  4482     1 
 4463  4467     1 
 4463  4468     1 
 4463  4474     1 
 4463  4476     1 
 4463  4478     1 
 4463  4482     1 
 4464  4466     1 
 4464  4475     1 
 4464  4477     1 
 4464  4480     1 
 4464  4481     1 
 4465  4469     1 
 4465  4470     1 
 4465  4477     1 
 4465  4480     1 
 4465  4481     1 
 4466  4471     1 
 4466  4474     1 
 4466  4476     1 
 4466  4479     1 
 4467  4469     1 
 4467  4470     1 
 4467  4475     1 
 4468  4472     1 
 4468  4473     1 
 4468  4475     1 
 4469  4471     1 
 4469  4474     1 
 4470  4476     1 
 4471  4475     1 
 4472  4474     1 
 4473  4474     1 
 4475  4479     1 
 4477  4484     1 
 4477  4485     1 
 4477  4486     1 
 4478  4480     1 
 4478  4481     1 
 4478  4483     1 
 4479  4483     1 
 4480  4482     1 
 4481  4482     1 
 4482  4487     1 
 4483  4488     1 
 4483  4489     1 
 4483  4490     1 
 4484  4487     1 
 4485  4487     1 
 4486  4491     1 
 4486  4492     1 
 4486  4507     1 
 4487  4493     1 
 4487  4508     1 
 4487  4509     1 
 4487  4512     1 
 4488  4491     1 
 4488  4492     1 
 4488  4507     1 
 4489  4491     1 
 4489  4492     1 
 4489  4507     1 
 4490  4494     1 
 4490  4495     1 
 4490  4510     1 
 4490  4511     1 
 4490  4513     1 
 4491  4493     1 
 4491  4508     1 
 4491  4509     1 
 4491  4512     1 
 4492  4496     1 
 4492  4505     1 
 4492  4508     1 
 4492  4510     1 
 4492  4511     1 
 4492  4512     1 
 4493  4497     1 
 4493  4498     1 
 4493  4504     1 
 4493  4506     1 
 4493  4508     1 
 4493  4512     1 
 4494  4496     1 
 4494  4505     1 
 4494  4507     1 
 4494  4510     1 
 4494  4511     1 
 4495  4499     1 
 4495  4500     1 
 4495  4507     1 
 4495  4510     1 
 4495  4511     1 
 4496  4501     1 
 4496  4504     1 
 4496  4506     1 
 4496  4509     1 
 4497  4499     1 
 4497  4500     1 
 4497  4505     1 
 4498  4502     1 
 4498  4503     1 
 4498  4505     1 
 4499  4501     1 
 4499  4504     1 
 4500  4506     1 
 4501  4505     1 
 4502  4504     1 
 4503  4504     1 
 4505  4509     1 
 4507  4514     1 
 4507  4515     1 
 4507  4516     1 
 4508  4510     1 
 4508  4511     1 
 4508  4513     1 
 4509  4513     1 
 4510  4512     1 
 4511  4512     1 
 4512  4517     1 
 4513  4518     1 
 4513  4519     1 
 4513  4520     1 
 4514  4517     1 
 4515  4517     1 
 4516  4521     1 
 4516  4522     1 
 4516  4540     1 
 4517  4523     1 
 4517  4541     1 
 4517  4542     1 
 4517  4545     1 
 4518  4521     1 
 4518  4522     1 
 4518  4540     1 
 4519  4521     1 
 4519  4522     1 
 4519  4540     1 
 4520  4524     1 
 4520  4525     1 
 4520  4543     1 
 4520  4544     1 
 4520  4546     1 
 4521  4523     1 
 4521  4541     1 
 4521  4542     1 
 4521  4545     1 
 4522  4526     1 
 4522  4539     1 
 4522  4541     1 
 4522  4543     1 
 4522  4544     1 
 4522  4545     1 
 4523  4527     1 
 4523  4528     1 
 4523  4529     1 
 4523  4538     1 
 4523  4541     1 
 4523  4545     1 
 4524  4526     1 
 4524  4539     1 
 4524  4540     1 
 4524  4543     1 
 4524  4544     1 
 4525  4530     1 
 4525  4534     1 
 4525  4540     1 
 4525  4543     1 
 4525  4544     1 
 4526  4530     1 
 4526  4538     1 
 4526  4542     1 
 4527  4529     1 
 4527  4539     1 
 4528  4531     1 
 4528  4532     1 
 4528  4538     1 
 4529  4533     1 
 4529  4534     1 
 4530  4535     1 
 4530  4538     1 
 4531  4533     1 
 4531  4534     1 
 4531  4539     1 
 4532  4536     1 
 4532  4537     1 
 4532  4539     1 
 4533  4535     1 
 4533  4538     1 
 4535  4539     1 
 4536  4538     1 
 4537  4538     1 
 4539  4542     1 
 4540  4547     1 
 4540  4548     1 
 4540  4549     1 
 4541  4543     1 
 4541  4544     1 
 4541  4546     1 
 4542  4546     1 
 4543  4545     1 
 4544  4545     1 
 4545  4550     1 
 4546  4551     1 
 4546  4552     1 
 4546  4553     1 
 4547  4550     1 
 4548  4550     1 
 4549  4554     1 
 4549  4555     1 
 4549  4573     1 
 4550  4556     1 
 4550  4574     1 
 4550  4575     1 
 4550  4578     1 
 4551  4554     1 
 4551  4555     1 
 4551  4573     1 
 4552  4554     1 
 4552  4555     1 
 4552  4573     1 
 4553  4557     1 
 4553  4558     1 
 4553  4576     1 
 4553  4577     1 
 4553  4579     1 
 4554  4556     1 
 4554  4574     1 
 4554  4575     1 
 4554  4578     1 
 4555  4559     1 
 4555  4572     1 
 4555  4574     1 
 4555  4576     1 
 4555  4577     1 
 4555  4578     1 
 4556  4560     1 
 4556  4561     1 
 4556  4562     1 
 4556  4571     1 
 4556  4574     1 
 4556  4578     1 
 4557  4559     1 
 4557  4572     1 
 4557  4573     1 
 4557  4576     1 
 4557  4577     1 
 4558  4563     1 
 4558  4567     1 
 4558  4573     1 
 4558  4576     1 
 4558  4577     1 
 4559  4563     1 
 4559  4571     1 
 4559  4575     1 
 4560  4562     1 
 4560  4572     1 
 4561  4564     1 
 4561  4565     1 
 4561  4571     1 
 4562  4566     1 
 4562  4567     1 
 4563  4568     1 
 4563  4571     1 
 4564  4566     1 
 4564  4567     1 
 4564  4572     1 
 4565  4569     1 
 4565  4570     1 
 4565  4572     1 
 4566  4568     1 
 4566  4571     1 
 4568  4572     1 
 4569  4571     1 
 4570  4571     1 
 4572  4575     1 
 4573  4580     1 
 4573  4581     1 
 4573  4582     1 
 4574  4576     1 
 4574  4577     1 
 4574  4579     1 
 4575  4579     1 
 4576  4578     1 
 4577  4578     1 
 4578  4583     1 
 4579  4584     1 
 4579  4585     1 
 4579  4586     1 
 4580  4583     1 
 4581  4583     1 
 4582  4587     1 
 4582  4588     1 
 4582  4606     1 
 4583  4589     1 
 4583  4607     1 
 4583  4608     1 
 4583  4611     1 
 4584  4587     1 
 4584  4588     1 
 4584  4606     1 
 4585  4587     1 
 4585  4588     1 
 4585  4606     1 
 4586  4590     1 
 4586  4591     1 
 4586  4609     1 
 4586  4610     1 
 4586  4612     1 
 4587  4589     1 
 4587  4607     1 
 4587  4608     1 
 4587  4611     1 
 4588  4592     1 
 4588  4605     1 
 4588  4607     1 
 4588  4609     1 
 4588  4610     1 
 4588  4611     1 
 4589  4593     1 
 4589  4594     1 
 4589  4595     1 
 4589  4604     1 
 4589  4607     1 
 4589  4611     1 
 4590  4592     1 
 4590  4605     1 
 4590  4606     1 
 4590  4609     1 
 4590  4610     1 
 4591  4596     1 
 4591  4600     1 
 4591  4606     1 
 4591  4609     1 
 4591  4610     1 
 4592  4596     1 
 4592  4604     1 
 4592  4608     1 
 4593  4595     1 
 4593  4605     1 
 4594  4597     1 
 4594  4598     1 
 4594  4604     1 
 4595  4599     1 
 4595  4600     1 
 4596  4601     1 
 4596  4604     1 
 4597  4599     1 
 4597  4600     1 
 4597  4605     1 
 4598  4602     1 
 4598  4603     1 
 4598  4605     1 
 4599  4601     1 
 4599  4604     1 
 4601  4605     1 
 4602  4604     1 
 4603  4604     1 
 4605  4608     1 
 4607  4609     1 
 4607  4610     1 
 4607  4612     1 
 4608  4612     1 
 4609  4611     1 
 4610  4611     1 

[ angles ]
;  ai    aj    ak funct            c0            c1            c2            c3
    2     1     3     1 
    1     3     4     1 
    1     3     5     1 
    1     3     6     1 
    4     3     5     1 
    4     3     6     1 
    5     3     6     1 
    3     6     7     1 
    3     6     8     1 
    3     6    25     1 
    7     6     8     1 
    7     6    25     1 
    8     6    25     1 
    6     8     9     1 
    8     9    10     1 
    8     9    11     1 
    8     9    27     1 
   10     9    11     1 
   10     9    27     1 
   11     9    27     1 
    9    11    12     1 
    9    11    24     1 
   12    11    24     1 
   11    12    13     1 
   11    12    14     1 
   13    12    14     1 
   12    14    15     1 
   14    15    16     1 
   14    15    24     1 
   16    15    24     1 
   15    16    17     1 
   15    16    20     1 
   17    16    20     1 
   16    17    18     1 
   16    17    19     1 
   18    17    19     1 
   16    20    21     1 
   20    21    22     1 
   20    21    23     1 
   22    21    23     1 
   21    23    24     1 
   11    24    15     1 
   11    24    23     1 
   15    24    23     1 
    6    25    26     1 
    6    25    27     1 
    6    25    30     1 
   26    25    27     1 
   26    25    30     1 
   27    25    30     1 
    9    27    25     1 
    9    27    28     1 
    9    27    29     1 
   25    27    28     1 
   25    27    29     1 
   28    27    29     1 
   25    30    31     1 
   30    31    32     1 
   30    31    33     1 
   30    31    34     1 
   32    31    33     1 
   32    31    34     1 
   33    31    34     1 
   31    34    35     1 
   34    35    36     1 
   34    35    37     1 
   34    35    38     1 
   36    35    37     1 
   36    35    38     1 
   37    35    38     1 
   35    38    39     1 
   35    38    40     1 
   35    38    58     1 
   39    38    40     1 
   39    38    58     1 
   40    38    58     1 
   38    40    41     1 
   40    41    42     1 
   40    41    43     1 
   40    41    60     1 
   42    41    43     1 
   42    41    60     1 
   43    41    60     1 
   41    43    44     1 
   41    43    57     1 
   44    43    57     1 
   43    44    45     1 
   43    44    46     1 
   45    44    46     1 
   44    46    47     1 
   46    47    48     1 
   46    47    57     1 
   48    47    57     1 
   47    48    49     1 
   47    48    50     1 
   49    48    50     1 
   48    50    51     1 
   48    50    52     1 
   51    50    52     1 
   50    52    53     1 
   50    52    56     1 
   53    52    56     1 
   52    53    54     1 
   52    53    55     1 
   54    53    55     1 
   52    56    57     1 
   43    57    47     1 
   43    57    56     1 
   47    57    56     1 
   38    58    59     1 
   38    58    60     1 
   38    58    63     1 
   59    58    60     1 
   59    58    63     1 
   60    58    63     1 
   41    60    58     1 
   41    60    61     1 
   41    60    62     1 
   58    60    61     1 
   58    60    62     1 
   61    60    62     1 
   58    63    64     1 
   63    64    65     1 
   63    64    66     1 
   63    64    67     1 
   65    64    66     1 
   65    64    67     1 
   66    64    67     1 
   64    67    68     1 
   67    68    69     1 
   67    68    70     1 
   67    68    71     1 
   69    68    70     1 
   69    68    71     1 
   70    68    71     1 
   68    71    72     1 
   68    71    73     1 
   68    71    91     1 
   72    71    73     1 
   72    71    91     1 
   73    71    91     1 
   71    73    74     1 
   73    74    75     1 
   73    74    76     1 
   73    74    93     1 
   75    74    76     1 
   75    74    93     1 
   76    74    93     1 
   74    76    77     1 
   74    76    90     1 
   77    76    90     1 
   76    77    78     1 
   76    77    79     1 
   78    77    79     1 
   77    79    80     1 
   79    80    81     1 
   79    80    90     1 
   81    80    90     1 
   80    81    82     1 
   80    81    83     1 
   82    81    83     1 
   81    83    84     1 
   81    83    85     1 
   84    83    85     1 
   83    85    86     1 
   83    85    89     1 
   86    85    89     1 
   85    86    87     1 
   85    86    88     1 
   87    86    88     1 
   85    89    90     1 
   76    90    80     1 
   76    90    89     1 
   80    90    89     1 
   71    91    92     1 
   71    91    93     1 
   71    91    96     1 
   92    91    93     1 
   92    91    96     1 
   93    91    96     1 
   74    93    91     1 
   74    93    94     1 
   74    93    95     1 
   91    93    94     1 
   91    93    95     1 
   94    93    95     1 
   91    96    97     1 
   96    97    98     1 
   96    97    99     1 
   96    97   100     1 
   98    97    99     1 
   98    97   100     1 
   99    97   100     1 
   97   100   101     1 
  100   101   102     1 
  100   101   103     1 
  100   101   104     1 
  102   101   103     1 
  102   101   104     1 
  103   101   104     1 
  101   104   105     1 
  101   104   106     1 
  101   104   124     1 
  105   104   106     1 
  105   104   124     1 
  106   104   124     1 
  104   106   107     1 
  106   107   108     1 
  106   107   109     1 
  106   107   126     1 
  108   107   109     1 
  108   107   126     1 
  109   107   126     1 
  107   109   110     1 
  107   109   123     1 
  110   109   123     1 
  109   110   111     1 
  109   110   112     1 
  111   110   112     1 
  110   112   113     1 
  112   113   114     1 
  112   113   123     1 
  114   113   123     1 
  113   114   115     1 
  113   114   116     1 
  115   114   116     1 
  114   116   117     1 
  114   116   118     1 
  117   116   118     1 
  116   118   119     1 
  116   118   122     1 
  119   118   122     1 
  118   119   120     1 
  118   119   121     1 
  120   119   121     1 
  118   122   123     1 
  109   123   113     1 
  109   123   122     1 
  113   123   122     1 
  104   124   125     1 
  104   124   126     1 
  104   124   129     1 
  125   124   126     1 
  125   124   129     1 
  126   124   129     1 
  107   126   124     1 
  107   126   127     1 
  107   126   128     1 
  124   126   127     1 
  124   126   128     1 
  127   126   128     1 
  124   129   130     1 
  129   130   131     1 
  129   130   132     1 
  129   130   133     1 
  131   130   132     1 
  131   130   133     1 
  132   130   133     1 
  130   133   134     1 
  133   134   135     1 
  133   134   136     1 
  133   134   137     1 
  135   134   136     1 
  135   134   137     1 
  136   134   137     1 
  134   137   138     1 
  134   137   139     1 
  134   137   156     1 
  138   137   139     1 
  138   137   156     1 
  139   137   156     1 
  137   139   140     1 
  139   140   141     1 
  139   140   142     1 
  139   140   158     1 
  141   140   142     1 
  141   140   158     1 
  142   140   158     1 
  140   142   143     1 
  140   142   154     1 
  143   142   154     1 
  142   143   144     1 
  142   143   145     1 
  144   143   145     1 
  143   145   146     1 
  143   145   150     1 
  146   145   150     1 
  145   146   147     1 
  145   146   148     1 
  145   146   149     1 
  147   146   148     1 
  147   146   149     1 
  148   146   149     1 
  145   150   151     1 
  145   150   152     1 
  151   150   152     1 
  150   152   153     1 
  150   152   154     1 
  153   152   154     1 
  142   154   152     1 
  142   154   155     1 
  152   154   155     1 
  137   156   157     1 
  137   156   158     1 
  137   156   161     1 
  157   156   158     1 
  157   156   161     1 
  158   156   161     1 
  140   158   156     1 
  140   158   159     1 
  140   158   160     1 
  156   158   159     1 
  156   158   160     1 
  159   158   160     1 
  156   161   162     1 
  161   162   163     1 
  161   162   164     1 
  161   162   165     1 
  163   162   164     1 
  163   162   165     1 
  164   162   165     1 
  162   165   166     1 
  165   166   167     1 
  165   166   168     1 
  165   166   169     1 
  167   166   168     1 
  167   166   169     1 
  168   166   169     1 
  166   169   170     1 
  166   169   171     1 
  166   169   186     1 
  170   169   171     1 
  170   169   186     1 
  171   169   186     1 
  169   171   172     1 
  171   172   173     1 
  171   172   174     1 
  171   172   188     1 
  173   172   174     1 
  173   172   188     1 
  174   172   188     1 
  172   174   175     1 
  172   174   184     1 
  175   174   184     1 
  174   175   176     1 
  174   175   177     1 
  176   175   177     1 
  175   177   178     1 
  175   177   179     1 
  178   177   179     1 
  177   179   180     1 
  177   179   183     1 
  180   179   183     1 
  179   180   181     1 
  179   180   182     1 
  181   180   182     1 
  179   183   184     1 
  174   184   183     1 
  174   184   185     1 
  183   184   185     1 
  169   186   187     1 
  169   186   188     1 
  169   186   191     1 
  187   186   188     1 
  187   186   191     1 
  188   186   191     1 
  172   188   186     1 
  172   188   189     1 
  172   188   190     1 
  186   188   189     1 
  186   188   190     1 
  189   188   190     1 
  186   191   192     1 
  191   192   193     1 
  191   192   194     1 
  191   192   195     1 
  193   192   194     1 
  193   192   195     1 
  194   192   195     1 
  192   195   196     1 
  195   196   197     1 
  195   196   198     1 
  195   196   199     1 
  197   196   198     1 
  197   196   199     1 
  198   196   199     1 
  196   199   200     1 
  196   199   201     1 
  196   199   219     1 
  200   199   201     1 
  200   199   219     1 
  201   199   219     1 
  199   201   202     1 
  201   202   203     1 
  201   202   204     1 
  201   202   221     1 
  203   202   204     1 
  203   202   221     1 
  204   202   221     1 
  202   204   205     1 
  202   204   218     1 
  205   204   218     1 
  204   205   206     1 
  204   205   207     1 
  206   205   207     1 
  205   207   208     1 
  207   208   209     1 
  207   208   218     1 
  209   208   218     1 
  208   209   210     1 
  208   209   211     1 
  210   209   211     1 
  209   211   212     1 
  209   211   213     1 
  212   211   213     1 
  211   213   214     1 
  211   213   217     1 
  214   213   217     1 
  213   214   215     1 
  213   214   216     1 
  215   214   216     1 
  213   217   218     1 
  204   218   208     1 
  204   218   217     1 
  208   218   217     1 
  199   219   220     1 
  199   219   221     1 
  199   219   224     1 
  220   219   221     1 
  220   219   224     1 
  221   219   224     1 
  202   221   219     1 
  202   221   222     1 
  202   221   223     1 
  219   221   222     1 
  219   221   223     1 
  222   221   223     1 
  219   224   225     1 
  224   225   226     1 
  224   225   227     1 
  224   225   228     1 
  226   225   227     1 
  226   225   228     1 
  227   225   228     1 
  225   228   229     1 
  228   229   230     1 
  228   229   231     1 
  228   229   232     1 
  230   229   231     1 
  230   229   232     1 
  231   229   232     1 
  229   232   233     1 
  229   232   234     1 
  229   232   252     1 
  233   232   234     1 
  233   232   252     1 
  234   232   252     1 
  232   234   235     1 
  234   235   236     1 
  234   235   237     1 
  234   235   254     1 
  236   235   237     1 
  236   235   254     1 
  237   235   254     1 
  235   237   238     1 
  235   237   251     1 
  238   237   251     1 
  237   238   239     1 
  237   238   240     1 
  239   238   240     1 
  238   240   241     1 
  240   241   242     1 
  240   241   251     1 
  242   241   251     1 
  241   242   243     1 
  241   242   244     1 
  243   242   244     1 
  242   244   245     1 
  242   244   246     1 
  245   244   246     1 
  244   246   247     1 
  244   246   250     1 
  247   246   250     1 
  246   247   248     1 
  246   247   249     1 
  248   247   249     1 
  246   250   251     1 
  237   251   241     1 
  237   251   250     1 
  241   251   250     1 
  232   252   253     1 
  232   252   254     1 
  232   252   257     1 
  253   252   254     1 
  253   252   257     1 
  254   252   257     1 
  235   254   252     1 
  235   254   255     1 
  235   254   256     1 
  252   254   255     1 
  252   254   256     1 
  255   254   256     1 
  252   257   258     1 
  257   258   259     1 
  257   258   260     1 
  257   258   261     1 
  259   258   260     1 
  259   258   261     1 
  260   258   261     1 
  258   261   262     1 
  261   262   263     1 
  261   262   264     1 
  261   262   265     1 
  263   262   264     1 
  263   262   265     1 
  264   262   265     1 
  262   265   266     1 
  262   265   267     1 
  262   265   285     1 
  266   265   267     1 
  266   265   285     1 
  267   265   285     1 
  265   267   268     1 
  267   268   269     1 
  267   268   270     1 
  267   268   287     1 
  269   268   270     1 
  269   268   287     1 
  270   268   287     1 
  268   270   271     1 
  268   270   284     1 
  271   270   284     1 
  270   271   272     1 
  270   271   273     1 
  272   271   273     1 
  271   273   274     1 
  273   274   275     1 
  273   274   284     1 
  275   274   284     1 
  274   275   276     1 
  274   275   277     1 
  276   275   277     1 
  275   277   278     1 
  275   277   279     1 
  278   277   279     1 
  277   279   280     1 
  277   279   283     1 
  280   279   283     1 
  279   280   281     1 
  279   280   282     1 
  281   280   282     1 
  279   283   284     1 
  270   284   274     1 
  270   284   283     1 
  274   284   283     1 
  265   285   286     1 
  265   285   287     1 
  265   285   290     1 
  286   285   287     1 
  286   285   290     1 
  287   285   290     1 
  268   287   285     1 
  268   287   288     1 
  268   287   289     1 
  285   287   288     1 
  285   287   289     1 
  288   287   289     1 
  285   290   291     1 
  290   291   292     1 
  290   291   293     1 
  290   291   294     1 
  292   291   293     1 
  292   291   294     1 
  293   291   294     1 
  291   294   295     1 
  294   295   296     1 
  294   295   297     1 
  294   295   298     1 
  296   295   297     1 
  296   295   298     1 
  297   295   298     1 
  295   298   299     1 
  295   298   300     1 
  295   298   317     1 
  299   298   300     1 
  299   298   317     1 
  300   298   317     1 
  298   300   301     1 
  300   301   302     1 
  300   301   303     1 
  300   301   319     1 
  302   301   303     1 
  302   301   319     1 
  303   301   319     1 
  301   303   304     1 
  301   303   316     1 
  304   303   316     1 
  303   304   305     1 
  303   304   306     1 
  305   304   306     1 
  304   306   307     1 
  306   307   308     1 
  306   307   316     1 
  308   307   316     1 
  307   308   309     1 
  307   308   312     1 
  309   308   312     1 
  308   309   310     1 
  308   309   311     1 
  310   309   311     1 
  308   312   313     1 
  312   313   314     1 
  312   313   315     1 
  314   313   315     1 
  313   315   316     1 
  303   316   307     1 
  303   316   315     1 
  307   316   315     1 
  298   317   318     1 
  298   317   319     1 
  298   317   322     1 
  318   317   319     1 
  318   317   322     1 
  319   317   322     1 
  301   319   317     1 
  301   319   320     1 
  301   319   321     1 
  317   319   320     1 
  317   319   321     1 
  320   319   321     1 
  317   322   323     1 
  322   323   324     1 
  322   323   325     1 
  322   323   326     1 
  324   323   325     1 
  324   323   326     1 
  325   323   326     1 
  323   326   327     1 
  326   327   328     1 
  326   327   329     1 
  326   327   330     1 
  328   327   329     1 
  328   327   330     1 
  329   327   330     1 
  327   330   331     1 
  327   330   332     1 
  327   330   347     1 
  331   330   332     1 
  331   330   347     1 
  332   330   347     1 
  330   332   333     1 
  332   333   334     1 
  332   333   335     1 
  332   333   349     1 
  334   333   335     1 
  334   333   349     1 
  335   333   349     1 
  333   335   336     1 
  333   335   345     1 
  336   335   345     1 
  335   336   337     1 
  335   336   338     1 
  337   336   338     1 
  336   338   339     1 
  336   338   340     1 
  339   338   340     1 
  338   340   341     1 
  338   340   344     1 
  341   340   344     1 
  340   341   342     1 
  340   341   343     1 
  342   341   343     1 
  340   344   345     1 
  335   345   344     1 
  335   345   346     1 
  344   345   346     1 
  330   347   348     1 
  330   347   349     1 
  330   347   352     1 
  348   347   349     1 
  348   347   352     1 
  349   347   352     1 
  333   349   347     1 
  333   349   350     1 
  333   349   351     1 
  347   349   350     1 
  347   349   351     1 
  350   349   351     1 
  347   352   353     1 
  352   353   354     1 
  352   353   355     1 
  352   353   356     1 
  354   353   355     1 
  354   353   356     1 
  355   353   356     1 
  353   356   357     1 
  356   357   358     1 
  356   357   359     1 
  356   357   360     1 
  358   357   359     1 
  358   357   360     1 
  359   357   360     1 
  357   360   361     1 
  357   360   362     1 
  357   360   377     1 
  361   360   362     1 
  361   360   377     1 
  362   360   377     1 
  360   362   363     1 
  362   363   364     1 
  362   363   365     1 
  362   363   379     1 
  364   363   365     1 
  364   363   379     1 
  365   363   379     1 
  363   365   366     1 
  363   365   375     1 
  366   365   375     1 
  365   366   367     1 
  365   366   368     1 
  367   366   368     1 
  366   368   369     1 
  366   368   370     1 
  369   368   370     1 
  368   370   371     1 
  368   370   374     1 
  371   370   374     1 
  370   371   372     1 
  370   371   373     1 
  372   371   373     1 
  370   374   375     1 
  365   375   374     1 
  365   375   376     1 
  374   375   376     1 
  360   377   378     1 
  360   377   379     1 
  360   377   382     1 
  378   377   379     1 
  378   377   382     1 
  379   377   382     1 
  363   379   377     1 
  363   379   380     1 
  363   379   381     1 
  377   379   380     1 
  377   379   381     1 
  380   379   381     1 
  377   382   383     1 
  382   383   384     1 
  382   383   385     1 
  382   383   386     1 
  384   383   385     1 
  384   383   386     1 
  385   383   386     1 
  383   386   387     1 
  386   387   388     1 
  386   387   389     1 
  386   387   390     1 
  388   387   389     1 
  388   387   390     1 
  389   387   390     1 
  387   390   391     1 
  387   390   392     1 
  387   390   407     1 
  391   390   392     1 
  391   390   407     1 
  392   390   407     1 
  390   392   393     1 
  392   393   394     1 
  392   393   395     1 
  392   393   409     1 
  394   393   395     1 
  394   393   409     1 
  395   393   409     1 
  393   395   396     1 
  393   395   405     1 
  396   395   405     1 
  395   396   397     1 
  395   396   398     1 
  397   396   398     1 
  396   398   399     1 
  396   398   400     1 
  399   398   400     1 
  398   400   401     1 
  398   400   404     1 
  401   400   404     1 
  400   401   402     1 
  400   401   403     1 
  402   401   403     1 
  400   404   405     1 
  395   405   404     1 
  395   405   406     1 
  404   405   406     1 
  390   407   408     1 
  390   407   409     1 
  390   407   412     1 
  408   407   409     1 
  408   407   412     1 
  409   407   412     1 
  393   409   407     1 
  393   409   410     1 
  393   409   411     1 
  407   409   410     1 
  407   409   411     1 
  410   409   411     1 
  407   412   413     1 
  412   413   414     1 
  412   413   415     1 
  412   413   416     1 
  414   413   415     1 
  414   413   416     1 
  415   413   416     1 
  413   416   417     1 
  416   417   418     1 
  416   417   419     1 
  416   417   420     1 
  418   417   419     1 
  418   417   420     1 
  419   417   420     1 
  417   420   421     1 
  417   420   422     1 
  417   420   440     1 
  421   420   422     1 
  421   420   440     1 
  422   420   440     1 
  420   422   423     1 
  422   423   424     1 
  422   423   425     1 
  422   423   442     1 
  424   423   425     1 
  424   423   442     1 
  425   423   442     1 
  423   425   426     1 
  423   425   439     1 
  426   425   439     1 
  425   426   427     1 
  425   426   428     1 
  427   426   428     1 
  426   428   429     1 
  428   429   430     1 
  428   429   439     1 
  430   429   439     1 
  429   430   431     1 
  429   430   432     1 
  431   430   432     1 
  430   432   433     1 
  430   432   434     1 
  433   432   434     1 
  432   434   435     1 
  432   434   438     1 
  435   434   438     1 
  434   435   436     1 
  434   435   437     1 
  436   435   437     1 
  434   438   439     1 
  425   439   429     1 
  425   439   438     1 
  429   439   438     1 
  420   440   441     1 
  420   440   442     1 
  420   440   445     1 
  441   440   442     1 
  441   440   445     1 
  442   440   445     1 
  423   442   440     1 
  423   442   443     1 
  423   442   444     1 
  440   442   443     1 
  440   442   444     1 
  443   442   444     1 
  440   445   446     1 
  445   446   447     1 
  445   446   448     1 
  445   446   449     1 
  447   446   448     1 
  447   446   449     1 
  448   446   449     1 
  446   449   450     1 
  449   450   451     1 
  449   450   452     1 
  449   450   453     1 
  451   450   452     1 
  451   450   453     1 
  452   450   453     1 
  450   453   454     1 
  450   453   455     1 
  450   453   473     1 
  454   453   455     1 
  454   453   473     1 
  455   453   473     1 
  453   455   456     1 
  455   456   457     1 
  455   456   458     1 
  455   456   475     1 
  457   456   458     1 
  457   456   475     1 
  458   456   475     1 
  456   458   459     1 
  456   458   472     1 
  459   458   472     1 
  458   459   460     1 
  458   459   461     1 
  460   459   461     1 
  459   461   462     1 
  461   462   463     1 
  461   462   472     1 
  463   462   472     1 
  462   463   464     1 
  462   463   465     1 
  464   463   465     1 
  463   465   466     1 
  463   465   467     1 
  466   465   467     1 
  465   467   468     1 
  465   467   471     1 
  468   467   471     1 
  467   468   469     1 
  467   468   470     1 
  469   468   470     1 
  467   471   472     1 
  458   472   462     1 
  458   472   471     1 
  462   472   471     1 
  453   473   474     1 
  453   473   475     1 
  453   473   478     1 
  474   473   475     1 
  474   473   478     1 
  475   473   478     1 
  456   475   473     1 
  456   475   476     1 
  456   475   477     1 
  473   475   476     1 
  473   475   477     1 
  476   475   477     1 
  473   478   479     1 
  478   479   480     1 
  478   479   481     1 
  478   479   482     1 
  480   479   481     1 
  480   479   482     1 
  481   479   482     1 
  479   482   483     1 
  482   483   484     1 
  482   483   485     1 
  482   483   486     1 
  484   483   485     1 
  484   483   486     1 
  485   483   486     1 
  483   486   487     1 
  483   486   488     1 
  483   486   506     1 
  487   486   488     1 
  487   486   506     1 
  488   486   506     1 
  486   488   489     1 
  488   489   490     1 
  488   489   491     1 
  488   489   508     1 
  490   489   491     1 
  490   489   508     1 
  491   489   508     1 
  489   491   492     1 
  489   491   505     1 
  492   491   505     1 
  491   492   493     1 
  491   492   494     1 
  493   492   494     1 
  492   494   495     1 
  494   495   496     1 
  494   495   505     1 
  496   495   505     1 
  495   496   497     1 
  495   496   498     1 
  497   496   498     1 
  496   498   499     1 
  496   498   500     1 
  499   498   500     1 
  498   500   501     1 
  498   500   504     1 
  501   500   504     1 
  500   501   502     1 
  500   501   503     1 
  502   501   503     1 
  500   504   505     1 
  491   505   495     1 
  491   505   504     1 
  495   505   504     1 
  486   506   507     1 
  486   506   508     1 
  486   506   511     1 
  507   506   508     1 
  507   506   511     1 
  508   506   511     1 
  489   508   506     1 
  489   508   509     1 
  489   508   510     1 
  506   508   509     1 
  506   508   510     1 
  509   508   510     1 
  506   511   512     1 
  511   512   513     1 
  511   512   514     1 
  511   512   515     1 
  513   512   514     1 
  513   512   515     1 
  514   512   515     1 
  512   515   516     1 
  515   516   517     1 
  515   516   518     1 
  515   516   519     1 
  517   516   518     1 
  517   516   519     1 
  518   516   519     1 
  516   519   520     1 
  516   519   521     1 
  516   519   536     1 
  520   519   521     1 
  520   519   536     1 
  521   519   536     1 
  519   521   522     1 
  521   522   523     1 
  521   522   524     1 
  521   522   538     1 
  523   522   524     1 
  523   522   538     1 
  524   522   538     1 
  522   524   525     1 
  522   524   534     1 
  525   524   534     1 
  524   525   526     1 
  524   525   527     1 
  526   525   527     1 
  525   527   528     1 
  525   527   529     1 
  528   527   529     1 
  527   529   530     1 
  527   529   533     1 
  530   529   533     1 
  529   530   531     1 
  529   530   532     1 
  531   530   532     1 
  529   533   534     1 
  524   534   533     1 
  524   534   535     1 
  533   534   535     1 
  519   536   537     1 
  519   536   538     1 
  519   536   541     1 
  537   536   538     1 
  537   536   541     1 
  538   536   541     1 
  522   538   536     1 
  522   538   539     1 
  522   538   540     1 
  536   538   539     1 
  536   538   540     1 
  539   538   540     1 
  536   541   542     1 
  541   542   543     1 
  541   542   544     1 
  541   542   545     1 
  543   542   544     1 
  543   542   545     1 
  544   542   545     1 
  542   545   546     1 
  545   546   547     1 
  545   546   548     1 
  545   546   549     1 
  547   546   548     1 
  547   546   549     1 
  548   546   549     1 
  546   549   550     1 
  546   549   551     1 
  546   549   568     1 
  550   549   551     1 
  550   549   568     1 
  551   549   568     1 
  549   551   552     1 
  551   552   553     1 
  551   552   554     1 
  551   552   570     1 
  553   552   554     1 
  553   552   570     1 
  554   552   570     1 
  552   554   555     1 
  552   554   567     1 
  555   554   567     1 
  554   555   556     1 
  554   555   557     1 
  556   555   557     1 
  555   557   558     1 
  557   558   559     1 
  557   558   567     1 
  559   558   567     1 
  558   559   560     1 
  558   559   563     1 
  560   559   563     1 
  559   560   561     1 
  559   560   562     1 
  561   560   562     1 
  559   563   564     1 
  563   564   565     1 
  563   564   566     1 
  565   564   566     1 
  564   566   567     1 
  554   567   558     1 
  554   567   566     1 
  558   567   566     1 
  549   568   569     1 
  549   568   570     1 
  549   568   573     1 
  569   568   570     1 
  569   568   573     1 
  570   568   573     1 
  552   570   568     1 
  552   570   571     1 
  552   570   572     1 
  568   570   571     1 
  568   570   572     1 
  571   570   572     1 
  568   573   574     1 
  573   574   575     1 
  573   574   576     1 
  573   574   577     1 
  575   574   576     1 
  575   574   577     1 
  576   574   577     1 
  574   577   578     1 
  577   578   579     1 
  577   578   580     1 
  577   578   581     1 
  579   578   580     1 
  579   578   581     1 
  580   578   581     1 
  578   581   582     1 
  578   581   583     1 
  578   581   601     1 
  582   581   583     1 
  582   581   601     1 
  583   581   601     1 
  581   583   584     1 
  583   584   585     1 
  583   584   586     1 
  583   584   603     1 
  585   584   586     1 
  585   584   603     1 
  586   584   603     1 
  584   586   587     1 
  584   586   600     1 
  587   586   600     1 
  586   587   588     1 
  586   587   589     1 
  588   587   589     1 
  587   589   590     1 
  589   590   591     1 
  589   590   600     1 
  591   590   600     1 
  590   591   592     1 
  590   591   593     1 
  592   591   593     1 
  591   593   594     1 
  591   593   595     1 
  594   593   595     1 
  593   595   596     1 
  593   595   599     1 
  596   595   599     1 
  595   596   597     1 
  595   596   598     1 
  597   596   598     1 
  595   599   600     1 
  586   600   590     1 
  586   600   599     1 
  590   600   599     1 
  581   601   602     1 
  581   601   603     1 
  581   601   606     1 
  602   601   603     1 
  602   601   606     1 
  603   601   606     1 
  584   603   601     1 
  584   603   604     1 
  584   603   605     1 
  601   603   604     1 
  601   603   605     1 
  604   603   605     1 
  601   606   607     1 
  606   607   608     1 
  606   607   609     1 
  606   607   610     1 
  608   607   609     1 
  608   607   610     1 
  609   607   610     1 
  607   610   611     1 
  610   611   612     1 
  610   611   613     1 
  610   611   614     1 
  612   611   613     1 
  612   611   614     1 
  613   611   614     1 
  611   614   615     1 
  611   614   616     1 
  611   614   634     1 
  615   614   616     1 
  615   614   634     1 
  616   614   634     1 
  614   616   617     1 
  616   617   618     1 
  616   617   619     1 
  616   617   636     1 
  618   617   619     1 
  618   617   636     1 
  619   617   636     1 
  617   619   620     1 
  617   619   633     1 
  620   619   633     1 
  619   620   621     1 
  619   620   622     1 
  621   620   622     1 
  620   622   623     1 
  622   623   624     1 
  622   623   633     1 
  624   623   633     1 
  623   624   625     1 
  623   624   626     1 
  625   624   626     1 
  624   626   627     1 
  624   626   628     1 
  627   626   628     1 
  626   628   629     1 
  626   628   632     1 
  629   628   632     1 
  628   629   630     1 
  628   629   631     1 
  630   629   631     1 
  628   632   633     1 
  619   633   623     1 
  619   633   632     1 
  623   633   632     1 
  614   634   635     1 
  614   634   636     1 
  614   634   639     1 
  635   634   636     1 
  635   634   639     1 
  636   634   639     1 
  617   636   634     1 
  617   636   637     1 
  617   636   638     1 
  634   636   637     1 
  634   636   638     1 
  637   636   638     1 
  634   639   640     1 
  639   640   641     1 
  639   640   642     1 
  639   640   643     1 
  641   640   642     1 
  641   640   643     1 
  642   640   643     1 
  640   643   644     1 
  643   644   645     1 
  643   644   646     1 
  643   644   647     1 
  645   644   646     1 
  645   644   647     1 
  646   644   647     1 
  644   647   648     1 
  644   647   649     1 
  644   647   667     1 
  648   647   649     1 
  648   647   667     1 
  649   647   667     1 
  647   649   650     1 
  649   650   651     1 
  649   650   652     1 
  649   650   669     1 
  651   650   652     1 
  651   650   669     1 
  652   650   669     1 
  650   652   653     1 
  650   652   666     1 
  653   652   666     1 
  652   653   654     1 
  652   653   655     1 
  654   653   655     1 
  653   655   656     1 
  655   656   657     1 
  655   656   666     1 
  657   656   666     1 
  656   657   658     1 
  656   657   659     1 
  658   657   659     1 
  657   659   660     1 
  657   659   661     1 
  660   659   661     1 
  659   661   662     1 
  659   661   665     1 
  662   661   665     1 
  661   662   663     1 
  661   662   664     1 
  663   662   664     1 
  661   665   666     1 
  652   666   656     1 
  652   666   665     1 
  656   666   665     1 
  647   667   668     1 
  647   667   669     1 
  647   667   672     1 
  668   667   669     1 
  668   667   672     1 
  669   667   672     1 
  650   669   667     1 
  650   669   670     1 
  650   669   671     1 
  667   669   670     1 
  667   669   671     1 
  670   669   671     1 
  667   672   673     1 
  672   673   674     1 
  672   673   675     1 
  672   673   676     1 
  674   673   675     1 
  674   673   676     1 
  675   673   676     1 
  673   676   677     1 
  676   677   678     1 
  676   677   679     1 
  676   677   680     1 
  678   677   679     1 
  678   677   680     1 
  679   677   680     1 
  677   680   681     1 
  677   680   682     1 
  677   680   700     1 
  681   680   682     1 
  681   680   700     1 
  682   680   700     1 
  680   682   683     1 
  682   683   684     1 
  682   683   685     1 
  682   683   702     1 
  684   683   685     1 
  684   683   702     1 
  685   683   702     1 
  683   685   686     1 
  683   685   699     1 
  686   685   699     1 
  685   686   687     1 
  685   686   688     1 
  687   686   688     1 
  686   688   689     1 
  688   689   690     1 
  688   689   699     1 
  690   689   699     1 
  689   690   691     1 
  689   690   692     1 
  691   690   692     1 
  690   692   693     1 
  690   692   694     1 
  693   692   694     1 
  692   694   695     1 
  692   694   698     1 
  695   694   698     1 
  694   695   696     1 
  694   695   697     1 
  696   695   697     1 
  694   698   699     1 
  685   699   689     1 
  685   699   698     1 
  689   699   698     1 
  680   700   701     1 
  680   700   702     1 
  680   700   705     1 
  701   700   702     1 
  701   700   705     1 
  702   700   705     1 
  683   702   700     1 
  683   702   703     1 
  683   702   704     1 
  700   702   703     1 
  700   702   704     1 
  703   702   704     1 
  700   705   706     1 
  705   706   707     1 
  705   706   708     1 
  705   706   709     1 
  707   706   708     1 
  707   706   709     1 
  708   706   709     1 
  706   709   710     1 
  709   710   711     1 
  709   710   712     1 
  709   710   713     1 
  711   710   712     1 
  711   710   713     1 
  712   710   713     1 
  710   713   714     1 
  710   713   715     1 
  710   713   730     1 
  714   713   715     1 
  714   713   730     1 
  715   713   730     1 
  713   715   716     1 
  715   716   717     1 
  715   716   718     1 
  715   716   732     1 
  717   716   718     1 
  717   716   732     1 
  718   716   732     1 
  716   718   719     1 
  716   718   728     1 
  719   718   728     1 
  718   719   720     1 
  718   719   721     1 
  720   719   721     1 
  719   721   722     1 
  719   721   723     1 
  722   721   723     1 
  721   723   724     1 
  721   723   727     1 
  724   723   727     1 
  723   724   725     1 
  723   724   726     1 
  725   724   726     1 
  723   727   728     1 
  718   728   727     1 
  718   728   729     1 
  727   728   729     1 
  713   730   731     1 
  713   730   732     1 
  713   730   735     1 
  731   730   732     1 
  731   730   735     1 
  732   730   735     1 
  716   732   730     1 
  716   732   733     1 
  716   732   734     1 
  730   732   733     1 
  730   732   734     1 
  733   732   734     1 
  730   735   736     1 
  735   736   737     1 
  735   736   738     1 
  735   736   739     1 
  737   736   738     1 
  737   736   739     1 
  738   736   739     1 
  736   739   740     1 
  739   740   741     1 
  739   740   742     1 
  739   740   743     1 
  741   740   742     1 
  741   740   743     1 
  742   740   743     1 
  740   743   744     1 
  740   743   745     1 
  740   743   760     1 
  744   743   745     1 
  744   743   760     1 
  745   743   760     1 
  743   745   746     1 
  745   746   747     1 
  745   746   748     1 
  745   746   762     1 
  747   746   748     1 
  747   746   762     1 
  748   746   762     1 
  746   748   749     1 
  746   748   758     1 
  749   748   758     1 
  748   749   750     1 
  748   749   751     1 
  750   749   751     1 
  749   751   752     1 
  749   751   753     1 
  752   751   753     1 
  751   753   754     1 
  751   753   757     1 
  754   753   757     1 
  753   754   755     1 
  753   754   756     1 
  755   754   756     1 
  753   757   758     1 
  748   758   757     1 
  748   758   759     1 
  757   758   759     1 
  743   760   761     1 
  743   760   762     1 
  743   760   765     1 
  761   760   762     1 
  761   760   765     1 
  762   760   765     1 
  746   762   760     1 
  746   762   763     1 
  746   762   764     1 
  760   762   763     1 
  760   762   764     1 
  763   762   764     1 
  760   765   766     1 
  765   766   767     1 
  765   766   768     1 
  765   766   769     1 
  767   766   768     1 
  767   766   769     1 
  768   766   769     1 
  766   769   770     1 
  769   770   771     1 
  769   770   772     1 
  769   770   773     1 
  771   770   772     1 
  771   770   773     1 
  772   770   773     1 
  770   773   774     1 
  770   773   775     1 
  770   773   790     1 
  774   773   775     1 
  774   773   790     1 
  775   773   790     1 
  773   775   776     1 
  775   776   777     1 
  775   776   778     1 
  775   776   792     1 
  777   776   778     1 
  777   776   792     1 
  778   776   792     1 
  776   778   779     1 
  776   778   788     1 
  779   778   788     1 
  778   779   780     1 
  778   779   781     1 
  780   779   781     1 
  779   781   782     1 
  779   781   783     1 
  782   781   783     1 
  781   783   784     1 
  781   783   787     1 
  784   783   787     1 
  783   784   785     1 
  783   784   786     1 
  785   784   786     1 
  783   787   788     1 
  778   788   787     1 
  778   788   789     1 
  787   788   789     1 
  773   790   791     1 
  773   790   792     1 
  773   790   795     1 
  791   790   792     1 
  791   790   795     1 
  792   790   795     1 
  776   792   790     1 
  776   792   793     1 
  776   792   794     1 
  790   792   793     1 
  790   792   794     1 
  793   792   794     1 
  790   795   796     1 
  795   796   797     1 
  795   796   798     1 
  795   796   799     1 
  797   796   798     1 
  797   796   799     1 
  798   796   799     1 
  796   799   800     1 
  799   800   801     1 
  799   800   802     1 
  799   800   803     1 
  801   800   802     1 
  801   800   803     1 
  802   800   803     1 
  800   803   804     1 
  800   803   805     1 
  800   803   822     1 
  804   803   805     1 
  804   803   822     1 
  805   803   822     1 
  803   805   806     1 
  805   806   807     1 
  805   806   808     1 
  805   806   824     1 
  807   806   808     1 
  807   806   824     1 
  808   806   824     1 
  806   808   809     1 
  806   808   821     1 
  809   808   821     1 
  808   809   810     1 
  808   809   811     1 
  810   809   811     1 
  809   811   812     1 
  811   812   813     1 
  811   812   821     1 
  813   812   821     1 
  812   813   814     1 
  812   813   817     1 
  814   813   817     1 
  813   814   815     1 
  813   814   816     1 
  815   814   816     1 
  813   817   818     1 
  817   818   819     1 
  817   818   820     1 
  819   818   820     1 
  818   820   821     1 
  808   821   812     1 
  808   821   820     1 
  812   821   820     1 
  803   822   823     1 
  803   822   824     1 
  803   822   827     1 
  823   822   824     1 
  823   822   827     1 
  824   822   827     1 
  806   824   822     1 
  806   824   825     1 
  806   824   826     1 
  822   824   825     1 
  822   824   826     1 
  825   824   826     1 
  822   827   828     1 
  827   828   829     1 
  827   828   830     1 
  827   828   831     1 
  829   828   830     1 
  829   828   831     1 
  830   828   831     1 
  828   831   832     1 
  831   832   833     1 
  831   832   834     1 
  831   832   835     1 
  833   832   834     1 
  833   832   835     1 
  834   832   835     1 
  832   835   836     1 
  832   835   837     1 
  832   835   855     1 
  836   835   837     1 
  836   835   855     1 
  837   835   855     1 
  835   837   838     1 
  837   838   839     1 
  837   838   840     1 
  837   838   857     1 
  839   838   840     1 
  839   838   857     1 
  840   838   857     1 
  838   840   841     1 
  838   840   854     1 
  841   840   854     1 
  840   841   842     1 
  840   841   843     1 
  842   841   843     1 
  841   843   844     1 
  843   844   845     1 
  843   844   854     1 
  845   844   854     1 
  844   845   846     1 
  844   845   847     1 
  846   845   847     1 
  845   847   848     1 
  845   847   849     1 
  848   847   849     1 
  847   849   850     1 
  847   849   853     1 
  850   849   853     1 
  849   850   851     1 
  849   850   852     1 
  851   850   852     1 
  849   853   854     1 
  840   854   844     1 
  840   854   853     1 
  844   854   853     1 
  835   855   856     1 
  835   855   857     1 
  835   855   860     1 
  856   855   857     1 
  856   855   860     1 
  857   855   860     1 
  838   857   855     1 
  838   857   858     1 
  838   857   859     1 
  855   857   858     1 
  855   857   859     1 
  858   857   859     1 
  855   860   861     1 
  860   861   862     1 
  860   861   863     1 
  860   861   864     1 
  862   861   863     1 
  862   861   864     1 
  863   861   864     1 
  861   864   865     1 
  864   865   866     1 
  864   865   867     1 
  864   865   868     1 
  866   865   867     1 
  866   865   868     1 
  867   865   868     1 
  865   868   869     1 
  865   868   870     1 
  865   868   888     1 
  869   868   870     1 
  869   868   888     1 
  870   868   888     1 
  868   870   871     1 
  870   871   872     1 
  870   871   873     1 
  870   871   890     1 
  872   871   873     1 
  872   871   890     1 
  873   871   890     1 
  871   873   874     1 
  871   873   887     1 
  874   873   887     1 
  873   874   875     1 
  873   874   876     1 
  875   874   876     1 
  874   876   877     1 
  876   877   878     1 
  876   877   887     1 
  878   877   887     1 
  877   878   879     1 
  877   878   880     1 
  879   878   880     1 
  878   880   881     1 
  878   880   882     1 
  881   880   882     1 
  880   882   883     1 
  880   882   886     1 
  883   882   886     1 
  882   883   884     1 
  882   883   885     1 
  884   883   885     1 
  882   886   887     1 
  873   887   877     1 
  873   887   886     1 
  877   887   886     1 
  868   888   889     1 
  868   888   890     1 
  868   888   893     1 
  889   888   890     1 
  889   888   893     1 
  890   888   893     1 
  871   890   888     1 
  871   890   891     1 
  871   890   892     1 
  888   890   891     1 
  888   890   892     1 
  891   890   892     1 
  888   893   894     1 
  893   894   895     1 
  893   894   896     1 
  893   894   897     1 
  895   894   896     1 
  895   894   897     1 
  896   894   897     1 
  894   897   898     1 
  897   898   899     1 
  897   898   900     1 
  897   898   901     1 
  899   898   900     1 
  899   898   901     1 
  900   898   901     1 
  898   901   902     1 
  898   901   903     1 
  898   901   920     1 
  902   901   903     1 
  902   901   920     1 
  903   901   920     1 
  901   903   904     1 
  903   904   905     1 
  903   904   906     1 
  903   904   922     1 
  905   904   906     1 
  905   904   922     1 
  906   904   922     1 
  904   906   907     1 
  904   906   919     1 
  907   906   919     1 
  906   907   908     1 
  906   907   909     1 
  908   907   909     1 
  907   909   910     1 
  909   910   911     1 
  909   910   919     1 
  911   910   919     1 
  910   911   912     1 
  910   911   915     1 
  912   911   915     1 
  911   912   913     1 
  911   912   914     1 
  913   912   914     1 
  911   915   916     1 
  915   916   917     1 
  915   916   918     1 
  917   916   918     1 
  916   918   919     1 
  906   919   910     1 
  906   919   918     1 
  910   919   918     1 
  901   920   921     1 
  901   920   922     1 
  901   920   925     1 
  921   920   922     1 
  921   920   925     1 
  922   920   925     1 
  904   922   920     1 
  904   922   923     1 
  904   922   924     1 
  920   922   923     1 
  920   922   924     1 
  923   922   924     1 
  920   925   926     1 
  925   926   927     1 
  925   926   928     1 
  925   926   929     1 
  927   926   928     1 
  927   926   929     1 
  928   926   929     1 
  926   929   930     1 
  929   930   931     1 
  929   930   932     1 
  929   930   933     1 
  931   930   932     1 
  931   930   933     1 
  932   930   933     1 
  930   933   934     1 
  930   933   935     1 
  930   933   953     1 
  934   933   935     1 
  934   933   953     1 
  935   933   953     1 
  933   935   936     1 
  935   936   937     1 
  935   936   938     1 
  935   936   955     1 
  937   936   938     1 
  937   936   955     1 
  938   936   955     1 
  936   938   939     1 
  936   938   952     1 
  939   938   952     1 
  938   939   940     1 
  938   939   941     1 
  940   939   941     1 
  939   941   942     1 
  941   942   943     1 
  941   942   952     1 
  943   942   952     1 
  942   943   944     1 
  942   943   945     1 
  944   943   945     1 
  943   945   946     1 
  943   945   947     1 
  946   945   947     1 
  945   947   948     1 
  945   947   951     1 
  948   947   951     1 
  947   948   949     1 
  947   948   950     1 
  949   948   950     1 
  947   951   952     1 
  938   952   942     1 
  938   952   951     1 
  942   952   951     1 
  933   953   954     1 
  933   953   955     1 
  933   953   958     1 
  954   953   955     1 
  954   953   958     1 
  955   953   958     1 
  936   955   953     1 
  936   955   956     1 
  936   955   957     1 
  953   955   956     1 
  953   955   957     1 
  956   955   957     1 
  953   958   959     1 
  958   959   960     1 
  958   959   961     1 
  958   959   962     1 
  960   959   961     1 
  960   959   962     1 
  961   959   962     1 
  959   962   963     1 
  962   963   964     1 
  962   963   965     1 
  962   963   966     1 
  964   963   965     1 
  964   963   966     1 
  965   963   966     1 
  963   966   967     1 
  963   966   968     1 
  963   966   986     1 
  967   966   968     1 
  967   966   986     1 
  968   966   986     1 
  966   968   969     1 
  968   969   970     1 
  968   969   971     1 
  968   969   988     1 
  970   969   971     1 
  970   969   988     1 
  971   969   988     1 
  969   971   972     1 
  969   971   985     1 
  972   971   985     1 
  971   972   973     1 
  971   972   974     1 
  973   972   974     1 
  972   974   975     1 
  974   975   976     1 
  974   975   985     1 
  976   975   985     1 
  975   976   977     1 
  975   976   978     1 
  977   976   978     1 
  976   978   979     1 
  976   978   980     1 
  979   978   980     1 
  978   980   981     1 
  978   980   984     1 
  981   980   984     1 
  980   981   982     1 
  980   981   983     1 
  982   981   983     1 
  980   984   985     1 
  971   985   975     1 
  971   985   984     1 
  975   985   984     1 
  966   986   987     1 
  966   986   988     1 
  966   986   991     1 
  987   986   988     1 
  987   986   991     1 
  988   986   991     1 
  969   988   986     1 
  969   988   989     1 
  969   988   990     1 
  986   988   989     1 
  986   988   990     1 
  989   988   990     1 
  986   991   992     1 
  991   992   993     1 
  991   992   994     1 
  991   992   995     1 
  993   992   994     1 
  993   992   995     1 
  994   992   995     1 
  992   995   996     1 
  995   996   997     1 
  995   996   998     1 
  995   996   999     1 
  997   996   998     1 
  997   996   999     1 
  998   996   999     1 
  996   999  1000     1 
  996   999  1001     1 
  996   999  1019     1 
 1000   999  1001     1 
 1000   999  1019     1 
 1001   999  1019     1 
  999  1001  1002     1 
 1001  1002  1003     1 
 1001  1002  1004     1 
 1001  1002  1021     1 
 1003  1002  1004     1 
 1003  1002  1021     1 
 1004  1002  1021     1 
 1002  1004  1005     1 
 1002  1004  1018     1 
 1005  1004  1018     1 
 1004  1005  1006     1 
 1004  1005  1007     1 
 1006  1005  1007     1 
 1005  1007  1008     1 
 1007  1008  1009     1 
 1007  1008  1018     1 
 1009  1008  1018     1 
 1008  1009  1010     1 
 1008  1009  1011     1 
 1010  1009  1011     1 
 1009  1011  1012     1 
 1009  1011  1013     1 
 1012  1011  1013     1 
 1011  1013  1014     1 
 1011  1013  1017     1 
 1014  1013  1017     1 
 1013  1014  1015     1 
 1013  1014  1016     1 
 1015  1014  1016     1 
 1013  1017  1018     1 
 1004  1018  1008     1 
 1004  1018  1017     1 
 1008  1018  1017     1 
  999  1019  1020     1 
  999  1019  1021     1 
  999  1019  1024     1 
 1020  1019  1021     1 
 1020  1019  1024     1 
 1021  1019  1024     1 
 1002  1021  1019     1 
 1002  1021  1022     1 
 1002  1021  1023     1 
 1019  1021  1022     1 
 1019  1021  1023     1 
 1022  1021  1023     1 
 1019  1024  1025     1 
 1024  1025  1026     1 
 1024  1025  1027     1 
 1024  1025  1028     1 
 1026  1025  1027     1 
 1026  1025  1028     1 
 1027  1025  1028     1 
 1025  1028  1029     1 
 1028  1029  1030     1 
 1028  1029  1031     1 
 1028  1029  1032     1 
 1030  1029  1031     1 
 1030  1029  1032     1 
 1031  1029  1032     1 
 1029  1032  1033     1 
 1029  1032  1034     1 
 1029  1032  1052     1 
 1033  1032  1034     1 
 1033  1032  1052     1 
 1034  1032  1052     1 
 1032  1034  1035     1 
 1034  1035  1036     1 
 1034  1035  1037     1 
 1034  1035  1054     1 
 1036  1035  1037     1 
 1036  1035  1054     1 
 1037  1035  1054     1 
 1035  1037  1038     1 
 1035  1037  1051     1 
 1038  1037  1051     1 
 1037  1038  1039     1 
 1037  1038  1040     1 
 1039  1038  1040     1 
 1038  1040  1041     1 
 1040  1041  1042     1 
 1040  1041  1051     1 
 1042  1041  1051     1 
 1041  1042  1043     1 
 1041  1042  1044     1 
 1043  1042  1044     1 
 1042  1044  1045     1 
 1042  1044  1046     1 
 1045  1044  1046     1 
 1044  1046  1047     1 
 1044  1046  1050     1 
 1047  1046  1050     1 
 1046  1047  1048     1 
 1046  1047  1049     1 
 1048  1047  1049     1 
 1046  1050  1051     1 
 1037  1051  1041     1 
 1037  1051  1050     1 
 1041  1051  1050     1 
 1032  1052  1053     1 
 1032  1052  1054     1 
 1032  1052  1057     1 
 1053  1052  1054     1 
 1053  1052  1057     1 
 1054  1052  1057     1 
 1035  1054  1052     1 
 1035  1054  1055     1 
 1035  1054  1056     1 
 1052  1054  1055     1 
 1052  1054  1056     1 
 1055  1054  1056     1 
 1052  1057  1058     1 
 1057  1058  1059     1 
 1057  1058  1060     1 
 1057  1058  1061     1 
 1059  1058  1060     1 
 1059  1058  1061     1 
 1060  1058  1061     1 
 1058  1061  1062     1 
 1061  1062  1063     1 
 1061  1062  1064     1 
 1061  1062  1065     1 
 1063  1062  1064     1 
 1063  1062  1065     1 
 1064  1062  1065     1 
 1062  1065  1066     1 
 1062  1065  1067     1 
 1062  1065  1084     1 
 1066  1065  1067     1 
 1066  1065  1084     1 
 1067  1065  1084     1 
 1065  1067  1068     1 
 1067  1068  1069     1 
 1067  1068  1070     1 
 1067  1068  1086     1 
 1069  1068  1070     1 
 1069  1068  1086     1 
 1070  1068  1086     1 
 1068  1070  1071     1 
 1068  1070  1082     1 
 1071  1070  1082     1 
 1070  1071  1072     1 
 1070  1071  1073     1 
 1072  1071  1073     1 
 1071  1073  1074     1 
 1071  1073  1078     1 
 1074  1073  1078     1 
 1073  1074  1075     1 
 1073  1074  1076     1 
 1073  1074  1077     1 
 1075  1074  1076     1 
 1075  1074  1077     1 
 1076  1074  1077     1 
 1073  1078  1079     1 
 1073  1078  1080     1 
 1079  1078  1080     1 
 1078  1080  1081     1 
 1078  1080  1082     1 
 1081  1080  1082     1 
 1070  1082  1080     1 
 1070  1082  1083     1 
 1080  1082  1083     1 
 1065  1084  1085     1 
 1065  1084  1086     1 
 1065  1084  1089     1 
 1085  1084  1086     1 
 1085  1084  1089     1 
 1086  1084  1089     1 
 1068  1086  1084     1 
 1068  1086  1087     1 
 1068  1086  1088     1 
 1084  1086  1087     1 
 1084  1086  1088     1 
 1087  1086  1088     1 
 1084  1089  1090     1 
 1089  1090  1091     1 
 1089  1090  1092     1 
 1089  1090  1093     1 
 1091  1090  1092     1 
 1091  1090  1093     1 
 1092  1090  1093     1 
 1090  1093  1094     1 
 1093  1094  1095     1 
 1093  1094  1096     1 
 1093  1094  1097     1 
 1095  1094  1096     1 
 1095  1094  1097     1 
 1096  1094  1097     1 
 1094  1097  1098     1 
 1094  1097  1099     1 
 1094  1097  1117     1 
 1098  1097  1099     1 
 1098  1097  1117     1 
 1099  1097  1117     1 
 1097  1099  1100     1 
 1099  1100  1101     1 
 1099  1100  1102     1 
 1099  1100  1119     1 
 1101  1100  1102     1 
 1101  1100  1119     1 
 1102  1100  1119     1 
 1100  1102  1103     1 
 1100  1102  1116     1 
 1103  1102  1116     1 
 1102  1103  1104     1 
 1102  1103  1105     1 
 1104  1103  1105     1 
 1103  1105  1106     1 
 1105  1106  1107     1 
 1105  1106  1116     1 
 1107  1106  1116     1 
 1106  1107  1108     1 
 1106  1107  1109     1 
 1108  1107  1109     1 
 1107  1109  1110     1 
 1107  1109  1111     1 
 1110  1109  1111     1 
 1109  1111  1112     1 
 1109  1111  1115     1 
 1112  1111  1115     1 
 1111  1112  1113     1 
 1111  1112  1114     1 
 1113  1112  1114     1 
 1111  1115  1116     1 
 1102  1116  1106     1 
 1102  1116  1115     1 
 1106  1116  1115     1 
 1097  1117  1118     1 
 1097  1117  1119     1 
 1097  1117  1122     1 
 1118  1117  1119     1 
 1118  1117  1122     1 
 1119  1117  1122     1 
 1100  1119  1117     1 
 1100  1119  1120     1 
 1100  1119  1121     1 
 1117  1119  1120     1 
 1117  1119  1121     1 
 1120  1119  1121     1 
 1117  1122  1123     1 
 1122  1123  1124     1 
 1122  1123  1125     1 
 1122  1123  1126     1 
 1124  1123  1125     1 
 1124  1123  1126     1 
 1125  1123  1126     1 
 1123  1126  1127     1 
 1126  1127  1128     1 
 1126  1127  1129     1 
 1126  1127  1130     1 
 1128  1127  1129     1 
 1128  1127  1130     1 
 1129  1127  1130     1 
 1127  1130  1131     1 
 1127  1130  1132     1 
 1127  1130  1150     1 
 1131  1130  1132     1 
 1131  1130  1150     1 
 1132  1130  1150     1 
 1130  1132  1133     1 
 1132  1133  1134     1 
 1132  1133  1135     1 
 1132  1133  1152     1 
 1134  1133  1135     1 
 1134  1133  1152     1 
 1135  1133  1152     1 
 1133  1135  1136     1 
 1133  1135  1149     1 
 1136  1135  1149     1 
 1135  1136  1137     1 
 1135  1136  1138     1 
 1137  1136  1138     1 
 1136  1138  1139     1 
 1138  1139  1140     1 
 1138  1139  1149     1 
 1140  1139  1149     1 
 1139  1140  1141     1 
 1139  1140  1142     1 
 1141  1140  1142     1 
 1140  1142  1143     1 
 1140  1142  1144     1 
 1143  1142  1144     1 
 1142  1144  1145     1 
 1142  1144  1148     1 
 1145  1144  1148     1 
 1144  1145  1146     1 
 1144  1145  1147     1 
 1146  1145  1147     1 
 1144  1148  1149     1 
 1135  1149  1139     1 
 1135  1149  1148     1 
 1139  1149  1148     1 
 1130  1150  1151     1 
 1130  1150  1152     1 
 1130  1150  1155     1 
 1151  1150  1152     1 
 1151  1150  1155     1 
 1152  1150  1155     1 
 1133  1152  1150     1 
 1133  1152  1153     1 
 1133  1152  1154     1 
 1150  1152  1153     1 
 1150  1152  1154     1 
 1153  1152  1154     1 
 1150  1155  1156     1 
 1155  1156  1157     1 
 1155  1156  1158     1 
 1155  1156  1159     1 
 1157  1156  1158     1 
 1157  1156  1159     1 
 1158  1156  1159     1 
 1156  1159  1160     1 
 1159  1160  1161     1 
 1159  1160  1162     1 
 1159  1160  1163     1 
 1161  1160  1162     1 
 1161  1160  1163     1 
 1162  1160  1163     1 
 1160  1163  1164     1 
 1160  1163  1165     1 
 1160  1163  1182     1 
 1164  1163  1165     1 
 1164  1163  1182     1 
 1165  1163  1182     1 
 1163  1165  1166     1 
 1165  1166  1167     1 
 1165  1166  1168     1 
 1165  1166  1184     1 
 1167  1166  1168     1 
 1167  1166  1184     1 
 1168  1166  1184     1 
 1166  1168  1169     1 
 1166  1168  1180     1 
 1169  1168  1180     1 
 1168  1169  1170     1 
 1168  1169  1171     1 
 1170  1169  1171     1 
 1169  1171  1172     1 
 1169  1171  1176     1 
 1172  1171  1176     1 
 1171  1172  1173     1 
 1171  1172  1174     1 
 1171  1172  1175     1 
 1173  1172  1174     1 
 1173  1172  1175     1 
 1174  1172  1175     1 
 1171  1176  1177     1 
 1171  1176  1178     1 
 1177  1176  1178     1 
 1176  1178  1179     1 
 1176  1178  1180     1 
 1179  1178  1180     1 
 1168  1180  1178     1 
 1168  1180  1181     1 
 1178  1180  1181     1 
 1163  1182  1183     1 
 1163  1182  1184     1 
 1163  1182  1187     1 
 1183  1182  1184     1 
 1183  1182  1187     1 
 1184  1182  1187     1 
 1166  1184  1182     1 
 1166  1184  1185     1 
 1166  1184  1186     1 
 1182  1184  1185     1 
 1182  1184  1186     1 
 1185  1184  1186     1 
 1182  1187  1188     1 
 1187  1188  1189     1 
 1187  1188  1190     1 
 1187  1188  1191     1 
 1189  1188  1190     1 
 1189  1188  1191     1 
 1190  1188  1191     1 
 1188  1191  1192     1 
 1191  1192  1193     1 
 1191  1192  1194     1 
 1191  1192  1195     1 
 1193  1192  1194     1 
 1193  1192  1195     1 
 1194  1192  1195     1 
 1192  1195  1196     1 
 1192  1195  1197     1 
 1192  1195  1212     1 
 1196  1195  1197     1 
 1196  1195  1212     1 
 1197  1195  1212     1 
 1195  1197  1198     1 
 1197  1198  1199     1 
 1197  1198  1200     1 
 1197  1198  1214     1 
 1199  1198  1200     1 
 1199  1198  1214     1 
 1200  1198  1214     1 
 1198  1200  1201     1 
 1198  1200  1210     1 
 1201  1200  1210     1 
 1200  1201  1202     1 
 1200  1201  1203     1 
 1202  1201  1203     1 
 1201  1203  1204     1 
 1201  1203  1205     1 
 1204  1203  1205     1 
 1203  1205  1206     1 
 1203  1205  1209     1 
 1206  1205  1209     1 
 1205  1206  1207     1 
 1205  1206  1208     1 
 1207  1206  1208     1 
 1205  1209  1210     1 
 1200  1210  1209     1 
 1200  1210  1211     1 
 1209  1210  1211     1 
 1195  1212  1213     1 
 1195  1212  1214     1 
 1195  1212  1217     1 
 1213  1212  1214     1 
 1213  1212  1217     1 
 1214  1212  1217     1 
 1198  1214  1212     1 
 1198  1214  1215     1 
 1198  1214  1216     1 
 1212  1214  1215     1 
 1212  1214  1216     1 
 1215  1214  1216     1 
 1212  1217  1218     1 
 1217  1218  1219     1 
 1217  1218  1220     1 
 1217  1218  1221     1 
 1219  1218  1220     1 
 1219  1218  1221     1 
 1220  1218  1221     1 
 1218  1221  1222     1 
 1221  1222  1223     1 
 1221  1222  1224     1 
 1221  1222  1225     1 
 1223  1222  1224     1 
 1223  1222  1225     1 
 1224  1222  1225     1 
 1222  1225  1226     1 
 1222  1225  1227     1 
 1222  1225  1242     1 
 1226  1225  1227     1 
 1226  1225  1242     1 
 1227  1225  1242     1 
 1225  1227  1228     1 
 1227  1228  1229     1 
 1227  1228  1230     1 
 1227  1228  1244     1 
 1229  1228  1230     1 
 1229  1228  1244     1 
 1230  1228  1244     1 
 1228  1230  1231     1 
 1228  1230  1240     1 
 1231  1230  1240     1 
 1230  1231  1232     1 
 1230  1231  1233     1 
 1232  1231  1233     1 
 1231  1233  1234     1 
 1231  1233  1235     1 
 1234  1233  1235     1 
 1233  1235  1236     1 
 1233  1235  1239     1 
 1236  1235  1239     1 
 1235  1236  1237     1 
 1235  1236  1238     1 
 1237  1236  1238     1 
 1235  1239  1240     1 
 1230  1240  1239     1 
 1230  1240  1241     1 
 1239  1240  1241     1 
 1225  1242  1243     1 
 1225  1242  1244     1 
 1225  1242  1247     1 
 1243  1242  1244     1 
 1243  1242  1247     1 
 1244  1242  1247     1 
 1228  1244  1242     1 
 1228  1244  1245     1 
 1228  1244  1246     1 
 1242  1244  1245     1 
 1242  1244  1246     1 
 1245  1244  1246     1 
 1242  1247  1248     1 
 1247  1248  1249     1 
 1247  1248  1250     1 
 1247  1248  1251     1 
 1249  1248  1250     1 
 1249  1248  1251     1 
 1250  1248  1251     1 
 1248  1251  1252     1 
 1251  1252  1253     1 
 1251  1252  1254     1 
 1251  1252  1255     1 
 1253  1252  1254     1 
 1253  1252  1255     1 
 1254  1252  1255     1 
 1252  1255  1256     1 
 1252  1255  1257     1 
 1252  1255  1275     1 
 1256  1255  1257     1 
 1256  1255  1275     1 
 1257  1255  1275     1 
 1255  1257  1258     1 
 1257  1258  1259     1 
 1257  1258  1260     1 
 1257  1258  1277     1 
 1259  1258  1260     1 
 1259  1258  1277     1 
 1260  1258  1277     1 
 1258  1260  1261     1 
 1258  1260  1274     1 
 1261  1260  1274     1 
 1260  1261  1262     1 
 1260  1261  1263     1 
 1262  1261  1263     1 
 1261  1263  1264     1 
 1263  1264  1265     1 
 1263  1264  1274     1 
 1265  1264  1274     1 
 1264  1265  1266     1 
 1264  1265  1267     1 
 1266  1265  1267     1 
 1265  1267  1268     1 
 1265  1267  1269     1 
 1268  1267  1269     1 
 1267  1269  1270     1 
 1267  1269  1273     1 
 1270  1269  1273     1 
 1269  1270  1271     1 
 1269  1270  1272     1 
 1271  1270  1272     1 
 1269  1273  1274     1 
 1260  1274  1264     1 
 1260  1274  1273     1 
 1264  1274  1273     1 
 1255  1275  1276     1 
 1255  1275  1277     1 
 1255  1275  1280     1 
 1276  1275  1277     1 
 1276  1275  1280     1 
 1277  1275  1280     1 
 1258  1277  1275     1 
 1258  1277  1278     1 
 1258  1277  1279     1 
 1275  1277  1278     1 
 1275  1277  1279     1 
 1278  1277  1279     1 
 1275  1280  1281     1 
 1280  1281  1282     1 
 1280  1281  1283     1 
 1280  1281  1284     1 
 1282  1281  1283     1 
 1282  1281  1284     1 
 1283  1281  1284     1 
 1281  1284  1285     1 
 1284  1285  1286     1 
 1284  1285  1287     1 
 1284  1285  1288     1 
 1286  1285  1287     1 
 1286  1285  1288     1 
 1287  1285  1288     1 
 1285  1288  1289     1 
 1285  1288  1290     1 
 1285  1288  1305     1 
 1289  1288  1290     1 
 1289  1288  1305     1 
 1290  1288  1305     1 
 1288  1290  1291     1 
 1290  1291  1292     1 
 1290  1291  1293     1 
 1290  1291  1307     1 
 1292  1291  1293     1 
 1292  1291  1307     1 
 1293  1291  1307     1 
 1291  1293  1294     1 
 1291  1293  1303     1 
 1294  1293  1303     1 
 1293  1294  1295     1 
 1293  1294  1296     1 
 1295  1294  1296     1 
 1294  1296  1297     1 
 1294  1296  1298     1 
 1297  1296  1298     1 
 1296  1298  1299     1 
 1296  1298  1302     1 
 1299  1298  1302     1 
 1298  1299  1300     1 
 1298  1299  1301     1 
 1300  1299  1301     1 
 1298  1302  1303     1 
 1293  1303  1302     1 
 1293  1303  1304     1 
 1302  1303  1304     1 
 1288  1305  1306     1 
 1288  1305  1307     1 
 1288  1305  1310     1 
 1306  1305  1307     1 
 1306  1305  1310     1 
 1307  1305  1310     1 
 1291  1307  1305     1 
 1291  1307  1308     1 
 1291  1307  1309     1 
 1305  1307  1308     1 
 1305  1307  1309     1 
 1308  1307  1309     1 
 1305  1310  1311     1 
 1310  1311  1312     1 
 1310  1311  1313     1 
 1310  1311  1314     1 
 1312  1311  1313     1 
 1312  1311  1314     1 
 1313  1311  1314     1 
 1311  1314  1315     1 
 1314  1315  1316     1 
 1314  1315  1317     1 
 1314  1315  1318     1 
 1316  1315  1317     1 
 1316  1315  1318     1 
 1317  1315  1318     1 
 1315  1318  1319     1 
 1315  1318  1320     1 
 1315  1318  1337     1 
 1319  1318  1320     1 
 1319  1318  1337     1 
 1320  1318  1337     1 
 1318  1320  1321     1 
 1320  1321  1322     1 
 1320  1321  1323     1 
 1320  1321  1339     1 
 1322  1321  1323     1 
 1322  1321  1339     1 
 1323  1321  1339     1 
 1321  1323  1324     1 
 1321  1323  1335     1 
 1324  1323  1335     1 
 1323  1324  1325     1 
 1323  1324  1326     1 
 1325  1324  1326     1 
 1324  1326  1327     1 
 1324  1326  1331     1 
 1327  1326  1331     1 
 1326  1327  1328     1 
 1326  1327  1329     1 
 1326  1327  1330     1 
 1328  1327  1329     1 
 1328  1327  1330     1 
 1329  1327  1330     1 
 1326  1331  1332     1 
 1326  1331  1333     1 
 1332  1331  1333     1 
 1331  1333  1334     1 
 1331  1333  1335     1 
 1334  1333  1335     1 
 1323  1335  1333     1 
 1323  1335  1336     1 
 1333  1335  1336     1 
 1318  1337  1338     1 
 1318  1337  1339     1 
 1318  1337  1342     1 
 1338  1337  1339     1 
 1338  1337  1342     1 
 1339  1337  1342     1 
 1321  1339  1337     1 
 1321  1339  1340     1 
 1321  1339  1341     1 
 1337  1339  1340     1 
 1337  1339  1341     1 
 1340  1339  1341     1 
 1337  1342  1343     1 
 1342  1343  1344     1 
 1342  1343  1345     1 
 1342  1343  1346     1 
 1344  1343  1345     1 
 1344  1343  1346     1 
 1345  1343  1346     1 
 1343  1346  1347     1 
 1346  1347  1348     1 
 1346  1347  1349     1 
 1346  1347  1350     1 
 1348  1347  1349     1 
 1348  1347  1350     1 
 1349  1347  1350     1 
 1347  1350  1351     1 
 1347  1350  1352     1 
 1347  1350  1367     1 
 1351  1350  1352     1 
 1351  1350  1367     1 
 1352  1350  1367     1 
 1350  1352  1353     1 
 1352  1353  1354     1 
 1352  1353  1355     1 
 1352  1353  1369     1 
 1354  1353  1355     1 
 1354  1353  1369     1 
 1355  1353  1369     1 
 1353  1355  1356     1 
 1353  1355  1365     1 
 1356  1355  1365     1 
 1355  1356  1357     1 
 1355  1356  1358     1 
 1357  1356  1358     1 
 1356  1358  1359     1 
 1356  1358  1360     1 
 1359  1358  1360     1 
 1358  1360  1361     1 
 1358  1360  1364     1 
 1361  1360  1364     1 
 1360  1361  1362     1 
 1360  1361  1363     1 
 1362  1361  1363     1 
 1360  1364  1365     1 
 1355  1365  1364     1 
 1355  1365  1366     1 
 1364  1365  1366     1 
 1350  1367  1368     1 
 1350  1367  1369     1 
 1350  1367  1372     1 
 1368  1367  1369     1 
 1368  1367  1372     1 
 1369  1367  1372     1 
 1353  1369  1367     1 
 1353  1369  1370     1 
 1353  1369  1371     1 
 1367  1369  1370     1 
 1367  1369  1371     1 
 1370  1369  1371     1 
 1367  1372  1373     1 
 1372  1373  1374     1 
 1372  1373  1375     1 
 1372  1373  1376     1 
 1374  1373  1375     1 
 1374  1373  1376     1 
 1375  1373  1376     1 
 1373  1376  1377     1 
 1376  1377  1378     1 
 1376  1377  1379     1 
 1376  1377  1380     1 
 1378  1377  1379     1 
 1378  1377  1380     1 
 1379  1377  1380     1 
 1377  1380  1381     1 
 1377  1380  1382     1 
 1377  1380  1397     1 
 1381  1380  1382     1 
 1381  1380  1397     1 
 1382  1380  1397     1 
 1380  1382  1383     1 
 1382  1383  1384     1 
 1382  1383  1385     1 
 1382  1383  1399     1 
 1384  1383  1385     1 
 1384  1383  1399     1 
 1385  1383  1399     1 
 1383  1385  1386     1 
 1383  1385  1395     1 
 1386  1385  1395     1 
 1385  1386  1387     1 
 1385  1386  1388     1 
 1387  1386  1388     1 
 1386  1388  1389     1 
 1386  1388  1390     1 
 1389  1388  1390     1 
 1388  1390  1391     1 
 1388  1390  1394     1 
 1391  1390  1394     1 
 1390  1391  1392     1 
 1390  1391  1393     1 
 1392  1391  1393     1 
 1390  1394  1395     1 
 1385  1395  1394     1 
 1385  1395  1396     1 
 1394  1395  1396     1 
 1380  1397  1398     1 
 1380  1397  1399     1 
 1380  1397  1402     1 
 1398  1397  1399     1 
 1398  1397  1402     1 
 1399  1397  1402     1 
 1383  1399  1397     1 
 1383  1399  1400     1 
 1383  1399  1401     1 
 1397  1399  1400     1 
 1397  1399  1401     1 
 1400  1399  1401     1 
 1397  1402  1403     1 
 1402  1403  1404     1 
 1402  1403  1405     1 
 1402  1403  1406     1 
 1404  1403  1405     1 
 1404  1403  1406     1 
 1405  1403  1406     1 
 1403  1406  1407     1 
 1406  1407  1408     1 
 1406  1407  1409     1 
 1406  1407  1410     1 
 1408  1407  1409     1 
 1408  1407  1410     1 
 1409  1407  1410     1 
 1407  1410  1411     1 
 1407  1410  1412     1 
 1407  1410  1430     1 
 1411  1410  1412     1 
 1411  1410  1430     1 
 1412  1410  1430     1 
 1410  1412  1413     1 
 1412  1413  1414     1 
 1412  1413  1415     1 
 1412  1413  1432     1 
 1414  1413  1415     1 
 1414  1413  1432     1 
 1415  1413  1432     1 
 1413  1415  1416     1 
 1413  1415  1429     1 
 1416  1415  1429     1 
 1415  1416  1417     1 
 1415  1416  1418     1 
 1417  1416  1418     1 
 1416  1418  1419     1 
 1418  1419  1420     1 
 1418  1419  1429     1 
 1420  1419  1429     1 
 1419  1420  1421     1 
 1419  1420  1422     1 
 1421  1420  1422     1 
 1420  1422  1423     1 
 1420  1422  1424     1 
 1423  1422  1424     1 
 1422  1424  1425     1 
 1422  1424  1428     1 
 1425  1424  1428     1 
 1424  1425  1426     1 
 1424  1425  1427     1 
 1426  1425  1427     1 
 1424  1428  1429     1 
 1415  1429  1419     1 
 1415  1429  1428     1 
 1419  1429  1428     1 
 1410  1430  1431     1 
 1410  1430  1432     1 
 1410  1430  1435     1 
 1431  1430  1432     1 
 1431  1430  1435     1 
 1432  1430  1435     1 
 1413  1432  1430     1 
 1413  1432  1433     1 
 1413  1432  1434     1 
 1430  1432  1433     1 
 1430  1432  1434     1 
 1433  1432  1434     1 
 1430  1435  1436     1 
 1435  1436  1437     1 
 1435  1436  1438     1 
 1435  1436  1439     1 
 1437  1436  1438     1 
 1437  1436  1439     1 
 1438  1436  1439     1 
 1436  1439  1440     1 
 1439  1440  1441     1 
 1439  1440  1442     1 
 1439  1440  1443     1 
 1441  1440  1442     1 
 1441  1440  1443     1 
 1442  1440  1443     1 
 1440  1443  1444     1 
 1440  1443  1445     1 
 1440  1443  1462     1 
 1444  1443  1445     1 
 1444  1443  1462     1 
 1445  1443  1462     1 
 1443  1445  1446     1 
 1445  1446  1447     1 
 1445  1446  1448     1 
 1445  1446  1464     1 
 1447  1446  1448     1 
 1447  1446  1464     1 
 1448  1446  1464     1 
 1446  1448  1449     1 
 1446  1448  1460     1 
 1449  1448  1460     1 
 1448  1449  1450     1 
 1448  1449  1451     1 
 1450  1449  1451     1 
 1449  1451  1452     1 
 1449  1451  1456     1 
 1452  1451  1456     1 
 1451  1452  1453     1 
 1451  1452  1454     1 
 1451  1452  1455     1 
 1453  1452  1454     1 
 1453  1452  1455     1 
 1454  1452  1455     1 
 1451  1456  1457     1 
 1451  1456  1458     1 
 1457  1456  1458     1 
 1456  1458  1459     1 
 1456  1458  1460     1 
 1459  1458  1460     1 
 1448  1460  1458     1 
 1448  1460  1461     1 
 1458  1460  1461     1 
 1443  1462  1463     1 
 1443  1462  1464     1 
 1443  1462  1467     1 
 1463  1462  1464     1 
 1463  1462  1467     1 
 1464  1462  1467     1 
 1446  1464  1462     1 
 1446  1464  1465     1 
 1446  1464  1466     1 
 1462  1464  1465     1 
 1462  1464  1466     1 
 1465  1464  1466     1 
 1462  1467  1468     1 
 1467  1468  1469     1 
 1467  1468  1470     1 
 1467  1468  1471     1 
 1469  1468  1470     1 
 1469  1468  1471     1 
 1470  1468  1471     1 
 1468  1471  1472     1 
 1471  1472  1473     1 
 1471  1472  1474     1 
 1471  1472  1475     1 
 1473  1472  1474     1 
 1473  1472  1475     1 
 1474  1472  1475     1 
 1472  1475  1476     1 
 1472  1475  1477     1 
 1472  1475  1494     1 
 1476  1475  1477     1 
 1476  1475  1494     1 
 1477  1475  1494     1 
 1475  1477  1478     1 
 1477  1478  1479     1 
 1477  1478  1480     1 
 1477  1478  1496     1 
 1479  1478  1480     1 
 1479  1478  1496     1 
 1480  1478  1496     1 
 1478  1480  1481     1 
 1478  1480  1493     1 
 1481  1480  1493     1 
 1480  1481  1482     1 
 1480  1481  1483     1 
 1482  1481  1483     1 
 1481  1483  1484     1 
 1483  1484  1485     1 
 1483  1484  1493     1 
 1485  1484  1493     1 
 1484  1485  1486     1 
 1484  1485  1489     1 
 1486  1485  1489     1 
 1485  1486  1487     1 
 1485  1486  1488     1 
 1487  1486  1488     1 
 1485  1489  1490     1 
 1489  1490  1491     1 
 1489  1490  1492     1 
 1491  1490  1492     1 
 1490  1492  1493     1 
 1480  1493  1484     1 
 1480  1493  1492     1 
 1484  1493  1492     1 
 1475  1494  1495     1 
 1475  1494  1496     1 
 1475  1494  1499     1 
 1495  1494  1496     1 
 1495  1494  1499     1 
 1496  1494  1499     1 
 1478  1496  1494     1 
 1478  1496  1497     1 
 1478  1496  1498     1 
 1494  1496  1497     1 
 1494  1496  1498     1 
 1497  1496  1498     1 
 1494  1499  1500     1 
 1499  1500  1501     1 
 1499  1500  1502     1 
 1499  1500  1503     1 
 1501  1500  1502     1 
 1501  1500  1503     1 
 1502  1500  1503     1 
 1500  1503  1504     1 
 1503  1504  1505     1 
 1503  1504  1506     1 
 1503  1504  1507     1 
 1505  1504  1506     1 
 1505  1504  1507     1 
 1506  1504  1507     1 
 1504  1507  1508     1 
 1504  1507  1509     1 
 1504  1507  1524     1 
 1508  1507  1509     1 
 1508  1507  1524     1 
 1509  1507  1524     1 
 1507  1509  1510     1 
 1509  1510  1511     1 
 1509  1510  1512     1 
 1509  1510  1526     1 
 1511  1510  1512     1 
 1511  1510  1526     1 
 1512  1510  1526     1 
 1510  1512  1513     1 
 1510  1512  1522     1 
 1513  1512  1522     1 
 1512  1513  1514     1 
 1512  1513  1515     1 
 1514  1513  1515     1 
 1513  1515  1516     1 
 1513  1515  1517     1 
 1516  1515  1517     1 
 1515  1517  1518     1 
 1515  1517  1521     1 
 1518  1517  1521     1 
 1517  1518  1519     1 
 1517  1518  1520     1 
 1519  1518  1520     1 
 1517  1521  1522     1 
 1512  1522  1521     1 
 1512  1522  1523     1 
 1521  1522  1523     1 
 1507  1524  1525     1 
 1507  1524  1526     1 
 1507  1524  1529     1 
 1525  1524  1526     1 
 1525  1524  1529     1 
 1526  1524  1529     1 
 1510  1526  1524     1 
 1510  1526  1527     1 
 1510  1526  1528     1 
 1524  1526  1527     1 
 1524  1526  1528     1 
 1527  1526  1528     1 
 1524  1529  1530     1 
 1529  1530  1531     1 
 1529  1530  1532     1 
 1529  1530  1533     1 
 1531  1530  1532     1 
 1531  1530  1533     1 
 1532  1530  1533     1 
 1530  1533  1534     1 
 1533  1534  1535     1 
 1533  1534  1536     1 
 1533  1534  1537     1 
 1535  1534  1536     1 
 1535  1534  1537     1 
 1536  1534  1537     1 
 1534  1537  1538     1 
 1534  1537  1539     1 
 1534  1537  1554     1 
 1538  1537  1539     1 
 1538  1537  1554     1 
 1539  1537  1554     1 
 1537  1539  1540     1 
 1539  1540  1541     1 
 1539  1540  1542     1 
 1539  1540  1556     1 
 1541  1540  1542     1 
 1541  1540  1556     1 
 1542  1540  1556     1 
 1540  1542  1543     1 
 1540  1542  1552     1 
 1543  1542  1552     1 
 1542  1543  1544     1 
 1542  1543  1545     1 
 1544  1543  1545     1 
 1543  1545  1546     1 
 1543  1545  1547     1 
 1546  1545  1547     1 
 1545  1547  1548     1 
 1545  1547  1551     1 
 1548  1547  1551     1 
 1547  1548  1549     1 
 1547  1548  1550     1 
 1549  1548  1550     1 
 1547  1551  1552     1 
 1542  1552  1551     1 
 1542  1552  1553     1 
 1551  1552  1553     1 
 1537  1554  1555     1 
 1537  1554  1556     1 
 1537  1554  1559     1 
 1555  1554  1556     1 
 1555  1554  1559     1 
 1556  1554  1559     1 
 1540  1556  1554     1 
 1540  1556  1557     1 
 1540  1556  1558     1 
 1554  1556  1557     1 
 1554  1556  1558     1 
 1557  1556  1558     1 
 1554  1559  1560     1 
 1559  1560  1561     1 
 1559  1560  1562     1 
 1559  1560  1563     1 
 1561  1560  1562     1 
 1561  1560  1563     1 
 1562  1560  1563     1 
 1560  1563  1564     1 
 1563  1564  1565     1 
 1563  1564  1566     1 
 1563  1564  1567     1 
 1565  1564  1566     1 
 1565  1564  1567     1 
 1566  1564  1567     1 
 1564  1567  1568     1 
 1564  1567  1569     1 
 1564  1567  1586     1 
 1568  1567  1569     1 
 1568  1567  1586     1 
 1569  1567  1586     1 
 1567  1569  1570     1 
 1569  1570  1571     1 
 1569  1570  1572     1 
 1569  1570  1588     1 
 1571  1570  1572     1 
 1571  1570  1588     1 
 1572  1570  1588     1 
 1570  1572  1573     1 
 1570  1572  1584     1 
 1573  1572  1584     1 
 1572  1573  1574     1 
 1572  1573  1575     1 
 1574  1573  1575     1 
 1573  1575  1576     1 
 1573  1575  1580     1 
 1576  1575  1580     1 
 1575  1576  1577     1 
 1575  1576  1578     1 
 1575  1576  1579     1 
 1577  1576  1578     1 
 1577  1576  1579     1 
 1578  1576  1579     1 
 1575  1580  1581     1 
 1575  1580  1582     1 
 1581  1580  1582     1 
 1580  1582  1583     1 
 1580  1582  1584     1 
 1583  1582  1584     1 
 1572  1584  1582     1 
 1572  1584  1585     1 
 1582  1584  1585     1 
 1567  1586  1587     1 
 1567  1586  1588     1 
 1567  1586  1591     1 
 1587  1586  1588     1 
 1587  1586  1591     1 
 1588  1586  1591     1 
 1570  1588  1586     1 
 1570  1588  1589     1 
 1570  1588  1590     1 
 1586  1588  1589     1 
 1586  1588  1590     1 
 1589  1588  1590     1 
 1586  1591  1592     1 
 1591  1592  1593     1 
 1591  1592  1594     1 
 1591  1592  1595     1 
 1593  1592  1594     1 
 1593  1592  1595     1 
 1594  1592  1595     1 
 1592  1595  1596     1 
 1595  1596  1597     1 
 1595  1596  1598     1 
 1595  1596  1599     1 
 1597  1596  1598     1 
 1597  1596  1599     1 
 1598  1596  1599     1 
 1596  1599  1600     1 
 1596  1599  1601     1 
 1596  1599  1616     1 
 1600  1599  1601     1 
 1600  1599  1616     1 
 1601  1599  1616     1 
 1599  1601  1602     1 
 1601  1602  1603     1 
 1601  1602  1604     1 
 1601  1602  1618     1 
 1603  1602  1604     1 
 1603  1602  1618     1 
 1604  1602  1618     1 
 1602  1604  1605     1 
 1602  1604  1614     1 
 1605  1604  1614     1 
 1604  1605  1606     1 
 1604  1605  1607     1 
 1606  1605  1607     1 
 1605  1607  1608     1 
 1605  1607  1609     1 
 1608  1607  1609     1 
 1607  1609  1610     1 
 1607  1609  1613     1 
 1610  1609  1613     1 
 1609  1610  1611     1 
 1609  1610  1612     1 
 1611  1610  1612     1 
 1609  1613  1614     1 
 1604  1614  1613     1 
 1604  1614  1615     1 
 1613  1614  1615     1 
 1599  1616  1617     1 
 1599  1616  1618     1 
 1599  1616  1621     1 
 1617  1616  1618     1 
 1617  1616  1621     1 
 1618  1616  1621     1 
 1602  1618  1616     1 
 1602  1618  1619     1 
 1602  1618  1620     1 
 1616  1618  1619     1 
 1616  1618  1620     1 
 1619  1618  1620     1 
 1616  1621  1622     1 
 1621  1622  1623     1 
 1621  1622  1624     1 
 1621  1622  1625     1 
 1623  1622  1624     1 
 1623  1622  1625     1 
 1624  1622  1625     1 
 1622  1625  1626     1 
 1625  1626  1627     1 
 1625  1626  1628     1 
 1625  1626  1629     1 
 1627  1626  1628     1 
 1627  1626  1629     1 
 1628  1626  1629     1 
 1626  1629  1630     1 
 1626  1629  1631     1 
 1626  1629  1648     1 
 1630  1629  1631     1 
 1630  1629  1648     1 
 1631  1629  1648     1 
 1629  1631  1632     1 
 1631  1632  1633     1 
 1631  1632  1634     1 
 1631  1632  1650     1 
 1633  1632  1634     1 
 1633  1632  1650     1 
 1634  1632  1650     1 
 1632  1634  1635     1 
 1632  1634  1646     1 
 1635  1634  1646     1 
 1634  1635  1636     1 
 1634  1635  1637     1 
 1636  1635  1637     1 
 1635  1637  1638     1 
 1635  1637  1642     1 
 1638  1637  1642     1 
 1637  1638  1639     1 
 1637  1638  1640     1 
 1637  1638  1641     1 
 1639  1638  1640     1 
 1639  1638  1641     1 
 1640  1638  1641     1 
 1637  1642  1643     1 
 1637  1642  1644     1 
 1643  1642  1644     1 
 1642  1644  1645     1 
 1642  1644  1646     1 
 1645  1644  1646     1 
 1634  1646  1644     1 
 1634  1646  1647     1 
 1644  1646  1647     1 
 1629  1648  1649     1 
 1629  1648  1650     1 
 1629  1648  1653     1 
 1649  1648  1650     1 
 1649  1648  1653     1 
 1650  1648  1653     1 
 1632  1650  1648     1 
 1632  1650  1651     1 
 1632  1650  1652     1 
 1648  1650  1651     1 
 1648  1650  1652     1 
 1651  1650  1652     1 
 1648  1653  1654     1 
 1653  1654  1655     1 
 1653  1654  1656     1 
 1653  1654  1657     1 
 1655  1654  1656     1 
 1655  1654  1657     1 
 1656  1654  1657     1 
 1654  1657  1658     1 
 1657  1658  1659     1 
 1657  1658  1660     1 
 1657  1658  1661     1 
 1659  1658  1660     1 
 1659  1658  1661     1 
 1660  1658  1661     1 
 1658  1661  1662     1 
 1658  1661  1663     1 
 1658  1661  1678     1 
 1662  1661  1663     1 
 1662  1661  1678     1 
 1663  1661  1678     1 
 1661  1663  1664     1 
 1663  1664  1665     1 
 1663  1664  1666     1 
 1663  1664  1680     1 
 1665  1664  1666     1 
 1665  1664  1680     1 
 1666  1664  1680     1 
 1664  1666  1667     1 
 1664  1666  1676     1 
 1667  1666  1676     1 
 1666  1667  1668     1 
 1666  1667  1669     1 
 1668  1667  1669     1 
 1667  1669  1670     1 
 1667  1669  1671     1 
 1670  1669  1671     1 
 1669  1671  1672     1 
 1669  1671  1675     1 
 1672  1671  1675     1 
 1671  1672  1673     1 
 1671  1672  1674     1 
 1673  1672  1674     1 
 1671  1675  1676     1 
 1666  1676  1675     1 
 1666  1676  1677     1 
 1675  1676  1677     1 
 1661  1678  1679     1 
 1661  1678  1680     1 
 1661  1678  1683     1 
 1679  1678  1680     1 
 1679  1678  1683     1 
 1680  1678  1683     1 
 1664  1680  1678     1 
 1664  1680  1681     1 
 1664  1680  1682     1 
 1678  1680  1681     1 
 1678  1680  1682     1 
 1681  1680  1682     1 
 1678  1683  1684     1 
 1683  1684  1685     1 
 1683  1684  1686     1 
 1683  1684  1687     1 
 1685  1684  1686     1 
 1685  1684  1687     1 
 1686  1684  1687     1 
 1684  1687  1688     1 
 1687  1688  1689     1 
 1687  1688  1690     1 
 1687  1688  1691     1 
 1689  1688  1690     1 
 1689  1688  1691     1 
 1690  1688  1691     1 
 1688  1691  1692     1 
 1688  1691  1693     1 
 1688  1691  1710     1 
 1692  1691  1693     1 
 1692  1691  1710     1 
 1693  1691  1710     1 
 1691  1693  1694     1 
 1693  1694  1695     1 
 1693  1694  1696     1 
 1693  1694  1712     1 
 1695  1694  1696     1 
 1695  1694  1712     1 
 1696  1694  1712     1 
 1694  1696  1697     1 
 1694  1696  1708     1 
 1697  1696  1708     1 
 1696  1697  1698     1 
 1696  1697  1699     1 
 1698  1697  1699     1 
 1697  1699  1700     1 
 1697  1699  1704     1 
 1700  1699  1704     1 
 1699  1700  1701     1 
 1699  1700  1702     1 
 1699  1700  1703     1 
 1701  1700  1702     1 
 1701  1700  1703     1 
 1702  1700  1703     1 
 1699  1704  1705     1 
 1699  1704  1706     1 
 1705  1704  1706     1 
 1704  1706  1707     1 
 1704  1706  1708     1 
 1707  1706  1708     1 
 1696  1708  1706     1 
 1696  1708  1709     1 
 1706  1708  1709     1 
 1691  1710  1711     1 
 1691  1710  1712     1 
 1691  1710  1715     1 
 1711  1710  1712     1 
 1711  1710  1715     1 
 1712  1710  1715     1 
 1694  1712  1710     1 
 1694  1712  1713     1 
 1694  1712  1714     1 
 1710  1712  1713     1 
 1710  1712  1714     1 
 1713  1712  1714     1 
 1710  1715  1716     1 
 1715  1716  1717     1 
 1715  1716  1718     1 
 1715  1716  1719     1 
 1717  1716  1718     1 
 1717  1716  1719     1 
 1718  1716  1719     1 
 1716  1719  1720     1 
 1719  1720  1721     1 
 1719  1720  1722     1 
 1719  1720  1723     1 
 1721  1720  1722     1 
 1721  1720  1723     1 
 1722  1720  1723     1 
 1720  1723  1724     1 
 1720  1723  1725     1 
 1720  1723  1740     1 
 1724  1723  1725     1 
 1724  1723  1740     1 
 1725  1723  1740     1 
 1723  1725  1726     1 
 1725  1726  1727     1 
 1725  1726  1728     1 
 1725  1726  1742     1 
 1727  1726  1728     1 
 1727  1726  1742     1 
 1728  1726  1742     1 
 1726  1728  1729     1 
 1726  1728  1738     1 
 1729  1728  1738     1 
 1728  1729  1730     1 
 1728  1729  1731     1 
 1730  1729  1731     1 
 1729  1731  1732     1 
 1729  1731  1733     1 
 1732  1731  1733     1 
 1731  1733  1734     1 
 1731  1733  1737     1 
 1734  1733  1737     1 
 1733  1734  1735     1 
 1733  1734  1736     1 
 1735  1734  1736     1 
 1733  1737  1738     1 
 1728  1738  1737     1 
 1728  1738  1739     1 
 1737  1738  1739     1 
 1723  1740  1741     1 
 1723  1740  1742     1 
 1723  1740  1745     1 
 1741  1740  1742     1 
 1741  1740  1745     1 
 1742  1740  1745     1 
 1726  1742  1740     1 
 1726  1742  1743     1 
 1726  1742  1744     1 
 1740  1742  1743     1 
 1740  1742  1744     1 
 1743  1742  1744     1 
 1740  1745  1746     1 
 1745  1746  1747     1 
 1745  1746  1748     1 
 1745  1746  1749     1 
 1747  1746  1748     1 
 1747  1746  1749     1 
 1748  1746  1749     1 
 1746  1749  1750     1 
 1749  1750  1751     1 
 1749  1750  1752     1 
 1749  1750  1753     1 
 1751  1750  1752     1 
 1751  1750  1753     1 
 1752  1750  1753     1 
 1750  1753  1754     1 
 1750  1753  1755     1 
 1750  1753  1770     1 
 1754  1753  1755     1 
 1754  1753  1770     1 
 1755  1753  1770     1 
 1753  1755  1756     1 
 1755  1756  1757     1 
 1755  1756  1758     1 
 1755  1756  1772     1 
 1757  1756  1758     1 
 1757  1756  1772     1 
 1758  1756  1772     1 
 1756  1758  1759     1 
 1756  1758  1768     1 
 1759  1758  1768     1 
 1758  1759  1760     1 
 1758  1759  1761     1 
 1760  1759  1761     1 
 1759  1761  1762     1 
 1759  1761  1763     1 
 1762  1761  1763     1 
 1761  1763  1764     1 
 1761  1763  1767     1 
 1764  1763  1767     1 
 1763  1764  1765     1 
 1763  1764  1766     1 
 1765  1764  1766     1 
 1763  1767  1768     1 
 1758  1768  1767     1 
 1758  1768  1769     1 
 1767  1768  1769     1 
 1753  1770  1771     1 
 1753  1770  1772     1 
 1753  1770  1775     1 
 1771  1770  1772     1 
 1771  1770  1775     1 
 1772  1770  1775     1 
 1756  1772  1770     1 
 1756  1772  1773     1 
 1756  1772  1774     1 
 1770  1772  1773     1 
 1770  1772  1774     1 
 1773  1772  1774     1 
 1770  1775  1776     1 
 1775  1776  1777     1 
 1775  1776  1778     1 
 1775  1776  1779     1 
 1777  1776  1778     1 
 1777  1776  1779     1 
 1778  1776  1779     1 
 1776  1779  1780     1 
 1779  1780  1781     1 
 1779  1780  1782     1 
 1779  1780  1783     1 
 1781  1780  1782     1 
 1781  1780  1783     1 
 1782  1780  1783     1 
 1780  1783  1784     1 
 1780  1783  1785     1 
 1780  1783  1800     1 
 1784  1783  1785     1 
 1784  1783  1800     1 
 1785  1783  1800     1 
 1783  1785  1786     1 
 1785  1786  1787     1 
 1785  1786  1788     1 
 1785  1786  1802     1 
 1787  1786  1788     1 
 1787  1786  1802     1 
 1788  1786  1802     1 
 1786  1788  1789     1 
 1786  1788  1798     1 
 1789  1788  1798     1 
 1788  1789  1790     1 
 1788  1789  1791     1 
 1790  1789  1791     1 
 1789  1791  1792     1 
 1789  1791  1793     1 
 1792  1791  1793     1 
 1791  1793  1794     1 
 1791  1793  1797     1 
 1794  1793  1797     1 
 1793  1794  1795     1 
 1793  1794  1796     1 
 1795  1794  1796     1 
 1793  1797  1798     1 
 1788  1798  1797     1 
 1788  1798  1799     1 
 1797  1798  1799     1 
 1783  1800  1801     1 
 1783  1800  1802     1 
 1783  1800  1805     1 
 1801  1800  1802     1 
 1801  1800  1805     1 
 1802  1800  1805     1 
 1786  1802  1800     1 
 1786  1802  1803     1 
 1786  1802  1804     1 
 1800  1802  1803     1 
 1800  1802  1804     1 
 1803  1802  1804     1 
 1800  1805  1806     1 
 1805  1806  1807     1 
 1805  1806  1808     1 
 1805  1806  1809     1 
 1807  1806  1808     1 
 1807  1806  1809     1 
 1808  1806  1809     1 
 1806  1809  1810     1 
 1809  1810  1811     1 
 1809  1810  1812     1 
 1809  1810  1813     1 
 1811  1810  1812     1 
 1811  1810  1813     1 
 1812  1810  1813     1 
 1810  1813  1814     1 
 1810  1813  1815     1 
 1810  1813  1833     1 
 1814  1813  1815     1 
 1814  1813  1833     1 
 1815  1813  1833     1 
 1813  1815  1816     1 
 1815  1816  1817     1 
 1815  1816  1818     1 
 1815  1816  1835     1 
 1817  1816  1818     1 
 1817  1816  1835     1 
 1818  1816  1835     1 
 1816  1818  1819     1 
 1816  1818  1832     1 
 1819  1818  1832     1 
 1818  1819  1820     1 
 1818  1819  1821     1 
 1820  1819  1821     1 
 1819  1821  1822     1 
 1821  1822  1823     1 
 1821  1822  1832     1 
 1823  1822  1832     1 
 1822  1823  1824     1 
 1822  1823  1825     1 
 1824  1823  1825     1 
 1823  1825  1826     1 
 1823  1825  1827     1 
 1826  1825  1827     1 
 1825  1827  1828     1 
 1825  1827  1831     1 
 1828  1827  1831     1 
 1827  1828  1829     1 
 1827  1828  1830     1 
 1829  1828  1830     1 
 1827  1831  1832     1 
 1818  1832  1822     1 
 1818  1832  1831     1 
 1822  1832  1831     1 
 1813  1833  1834     1 
 1813  1833  1835     1 
 1813  1833  1838     1 
 1834  1833  1835     1 
 1834  1833  1838     1 
 1835  1833  1838     1 
 1816  1835  1833     1 
 1816  1835  1836     1 
 1816  1835  1837     1 
 1833  1835  1836     1 
 1833  1835  1837     1 
 1836  1835  1837     1 
 1833  1838  1839     1 
 1838  1839  1840     1 
 1838  1839  1841     1 
 1838  1839  1842     1 
 1840  1839  1841     1 
 1840  1839  1842     1 
 1841  1839  1842     1 
 1839  1842  1843     1 
 1842  1843  1844     1 
 1842  1843  1845     1 
 1842  1843  1846     1 
 1844  1843  1845     1 
 1844  1843  1846     1 
 1845  1843  1846     1 
 1843  1846  1847     1 
 1843  1846  1848     1 
 1843  1846  1863     1 
 1847  1846  1848     1 
 1847  1846  1863     1 
 1848  1846  1863     1 
 1846  1848  1849     1 
 1848  1849  1850     1 
 1848  1849  1851     1 
 1848  1849  1865     1 
 1850  1849  1851     1 
 1850  1849  1865     1 
 1851  1849  1865     1 
 1849  1851  1852     1 
 1849  1851  1861     1 
 1852  1851  1861     1 
 1851  1852  1853     1 
 1851  1852  1854     1 
 1853  1852  1854     1 
 1852  1854  1855     1 
 1852  1854  1856     1 
 1855  1854  1856     1 
 1854  1856  1857     1 
 1854  1856  1860     1 
 1857  1856  1860     1 
 1856  1857  1858     1 
 1856  1857  1859     1 
 1858  1857  1859     1 
 1856  1860  1861     1 
 1851  1861  1860     1 
 1851  1861  1862     1 
 1860  1861  1862     1 
 1846  1863  1864     1 
 1846  1863  1865     1 
 1846  1863  1868     1 
 1864  1863  1865     1 
 1864  1863  1868     1 
 1865  1863  1868     1 
 1849  1865  1863     1 
 1849  1865  1866     1 
 1849  1865  1867     1 
 1863  1865  1866     1 
 1863  1865  1867     1 
 1866  1865  1867     1 
 1863  1868  1869     1 
 1868  1869  1870     1 
 1868  1869  1871     1 
 1868  1869  1872     1 
 1870  1869  1871     1 
 1870  1869  1872     1 
 1871  1869  1872     1 
 1869  1872  1873     1 
 1872  1873  1874     1 
 1872  1873  1875     1 
 1872  1873  1876     1 
 1874  1873  1875     1 
 1874  1873  1876     1 
 1875  1873  1876     1 
 1873  1876  1877     1 
 1873  1876  1878     1 
 1873  1876  1895     1 
 1877  1876  1878     1 
 1877  1876  1895     1 
 1878  1876  1895     1 
 1876  1878  1879     1 
 1878  1879  1880     1 
 1878  1879  1881     1 
 1878  1879  1897     1 
 1880  1879  1881     1 
 1880  1879  1897     1 
 1881  1879  1897     1 
 1879  1881  1882     1 
 1879  1881  1894     1 
 1882  1881  1894     1 
 1881  1882  1883     1 
 1881  1882  1884     1 
 1883  1882  1884     1 
 1882  1884  1885     1 
 1884  1885  1886     1 
 1884  1885  1894     1 
 1886  1885  1894     1 
 1885  1886  1887     1 
 1885  1886  1890     1 
 1887  1886  1890     1 
 1886  1887  1888     1 
 1886  1887  1889     1 
 1888  1887  1889     1 
 1886  1890  1891     1 
 1890  1891  1892     1 
 1890  1891  1893     1 
 1892  1891  1893     1 
 1891  1893  1894     1 
 1881  1894  1885     1 
 1881  1894  1893     1 
 1885  1894  1893     1 
 1876  1895  1896     1 
 1876  1895  1897     1 
 1876  1895  1900     1 
 1896  1895  1897     1 
 1896  1895  1900     1 
 1897  1895  1900     1 
 1879  1897  1895     1 
 1879  1897  1898     1 
 1879  1897  1899     1 
 1895  1897  1898     1 
 1895  1897  1899     1 
 1898  1897  1899     1 
 1895  1900  1901     1 
 1900  1901  1902     1 
 1900  1901  1903     1 
 1900  1901  1904     1 
 1902  1901  1903     1 
 1902  1901  1904     1 
 1903  1901  1904     1 
 1901  1904  1905     1 
 1904  1905  1906     1 
 1904  1905  1907     1 
 1904  1905  1908     1 
 1906  1905  1907     1 
 1906  1905  1908     1 
 1907  1905  1908     1 
 1905  1908  1909     1 
 1905  1908  1910     1 
 1905  1908  1925     1 
 1909  1908  1910     1 
 1909  1908  1925     1 
 1910  1908  1925     1 
 1908  1910  1911     1 
 1910  1911  1912     1 
 1910  1911  1913     1 
 1910  1911  1927     1 
 1912  1911  1913     1 
 1912  1911  1927     1 
 1913  1911  1927     1 
 1911  1913  1914     1 
 1911  1913  1923     1 
 1914  1913  1923     1 
 1913  1914  1915     1 
 1913  1914  1916     1 
 1915  1914  1916     1 
 1914  1916  1917     1 
 1914  1916  1918     1 
 1917  1916  1918     1 
 1916  1918  1919     1 
 1916  1918  1922     1 
 1919  1918  1922     1 
 1918  1919  1920     1 
 1918  1919  1921     1 
 1920  1919  1921     1 
 1918  1922  1923     1 
 1913  1923  1922     1 
 1913  1923  1924     1 
 1922  1923  1924     1 
 1908  1925  1926     1 
 1908  1925  1927     1 
 1908  1925  1930     1 
 1926  1925  1927     1 
 1926  1925  1930     1 
 1927  1925  1930     1 
 1911  1927  1925     1 
 1911  1927  1928     1 
 1911  1927  1929     1 
 1925  1927  1928     1 
 1925  1927  1929     1 
 1928  1927  1929     1 
 1925  1930  1931     1 
 1930  1931  1932     1 
 1930  1931  1933     1 
 1930  1931  1934     1 
 1932  1931  1933     1 
 1932  1931  1934     1 
 1933  1931  1934     1 
 1931  1934  1935     1 
 1934  1935  1936     1 
 1934  1935  1937     1 
 1934  1935  1938     1 
 1936  1935  1937     1 
 1936  1935  1938     1 
 1937  1935  1938     1 
 1935  1938  1939     1 
 1935  1938  1940     1 
 1935  1938  1955     1 
 1939  1938  1940     1 
 1939  1938  1955     1 
 1940  1938  1955     1 
 1938  1940  1941     1 
 1940  1941  1942     1 
 1940  1941  1943     1 
 1940  1941  1957     1 
 1942  1941  1943     1 
 1942  1941  1957     1 
 1943  1941  1957     1 
 1941  1943  1944     1 
 1941  1943  1953     1 
 1944  1943  1953     1 
 1943  1944  1945     1 
 1943  1944  1946     1 
 1945  1944  1946     1 
 1944  1946  1947     1 
 1944  1946  1948     1 
 1947  1946  1948     1 
 1946  1948  1949     1 
 1946  1948  1952     1 
 1949  1948  1952     1 
 1948  1949  1950     1 
 1948  1949  1951     1 
 1950  1949  1951     1 
 1948  1952  1953     1 
 1943  1953  1952     1 
 1943  1953  1954     1 
 1952  1953  1954     1 
 1938  1955  1956     1 
 1938  1955  1957     1 
 1938  1955  1960     1 
 1956  1955  1957     1 
 1956  1955  1960     1 
 1957  1955  1960     1 
 1941  1957  1955     1 
 1941  1957  1958     1 
 1941  1957  1959     1 
 1955  1957  1958     1 
 1955  1957  1959     1 
 1958  1957  1959     1 
 1955  1960  1961     1 
 1960  1961  1962     1 
 1960  1961  1963     1 
 1960  1961  1964     1 
 1962  1961  1963     1 
 1962  1961  1964     1 
 1963  1961  1964     1 
 1961  1964  1965     1 
 1964  1965  1966     1 
 1964  1965  1967     1 
 1964  1965  1968     1 
 1966  1965  1967     1 
 1966  1965  1968     1 
 1967  1965  1968     1 
 1965  1968  1969     1 
 1965  1968  1970     1 
 1965  1968  1987     1 
 1969  1968  1970     1 
 1969  1968  1987     1 
 1970  1968  1987     1 
 1968  1970  1971     1 
 1970  1971  1972     1 
 1970  1971  1973     1 
 1970  1971  1989     1 
 1972  1971  1973     1 
 1972  1971  1989     1 
 1973  1971  1989     1 
 1971  1973  1974     1 
 1971  1973  1985     1 
 1974  1973  1985     1 
 1973  1974  1975     1 
 1973  1974  1976     1 
 1975  1974  1976     1 
 1974  1976  1977     1 
 1974  1976  1981     1 
 1977  1976  1981     1 
 1976  1977  1978     1 
 1976  1977  1979     1 
 1976  1977  1980     1 
 1978  1977  1979     1 
 1978  1977  1980     1 
 1979  1977  1980     1 
 1976  1981  1982     1 
 1976  1981  1983     1 
 1982  1981  1983     1 
 1981  1983  1984     1 
 1981  1983  1985     1 
 1984  1983  1985     1 
 1973  1985  1983     1 
 1973  1985  1986     1 
 1983  1985  1986     1 
 1968  1987  1988     1 
 1968  1987  1989     1 
 1968  1987  1992     1 
 1988  1987  1989     1 
 1988  1987  1992     1 
 1989  1987  1992     1 
 1971  1989  1987     1 
 1971  1989  1990     1 
 1971  1989  1991     1 
 1987  1989  1990     1 
 1987  1989  1991     1 
 1990  1989  1991     1 
 1987  1992  1993     1 
 1992  1993  1994     1 
 1992  1993  1995     1 
 1992  1993  1996     1 
 1994  1993  1995     1 
 1994  1993  1996     1 
 1995  1993  1996     1 
 1993  1996  1997     1 
 1996  1997  1998     1 
 1996  1997  1999     1 
 1996  1997  2000     1 
 1998  1997  1999     1 
 1998  1997  2000     1 
 1999  1997  2000     1 
 1997  2000  2001     1 
 1997  2000  2002     1 
 1997  2000  2020     1 
 2001  2000  2002     1 
 2001  2000  2020     1 
 2002  2000  2020     1 
 2000  2002  2003     1 
 2002  2003  2004     1 
 2002  2003  2005     1 
 2002  2003  2022     1 
 2004  2003  2005     1 
 2004  2003  2022     1 
 2005  2003  2022     1 
 2003  2005  2006     1 
 2003  2005  2019     1 
 2006  2005  2019     1 
 2005  2006  2007     1 
 2005  2006  2008     1 
 2007  2006  2008     1 
 2006  2008  2009     1 
 2008  2009  2010     1 
 2008  2009  2019     1 
 2010  2009  2019     1 
 2009  2010  2011     1 
 2009  2010  2012     1 
 2011  2010  2012     1 
 2010  2012  2013     1 
 2010  2012  2014     1 
 2013  2012  2014     1 
 2012  2014  2015     1 
 2012  2014  2018     1 
 2015  2014  2018     1 
 2014  2015  2016     1 
 2014  2015  2017     1 
 2016  2015  2017     1 
 2014  2018  2019     1 
 2005  2019  2009     1 
 2005  2019  2018     1 
 2009  2019  2018     1 
 2000  2020  2021     1 
 2000  2020  2022     1 
 2000  2020  2025     1 
 2021  2020  2022     1 
 2021  2020  2025     1 
 2022  2020  2025     1 
 2003  2022  2020     1 
 2003  2022  2023     1 
 2003  2022  2024     1 
 2020  2022  2023     1 
 2020  2022  2024     1 
 2023  2022  2024     1 
 2020  2025  2026     1 
 2025  2026  2027     1 
 2025  2026  2028     1 
 2025  2026  2029     1 
 2027  2026  2028     1 
 2027  2026  2029     1 
 2028  2026  2029     1 
 2026  2029  2030     1 
 2029  2030  2031     1 
 2029  2030  2032     1 
 2029  2030  2033     1 
 2031  2030  2032     1 
 2031  2030  2033     1 
 2032  2030  2033     1 
 2030  2033  2034     1 
 2030  2033  2035     1 
 2030  2033  2053     1 
 2034  2033  2035     1 
 2034  2033  2053     1 
 2035  2033  2053     1 
 2033  2035  2036     1 
 2035  2036  2037     1 
 2035  2036  2038     1 
 2035  2036  2055     1 
 2037  2036  2038     1 
 2037  2036  2055     1 
 2038  2036  2055     1 
 2036  2038  2039     1 
 2036  2038  2052     1 
 2039  2038  2052     1 
 2038  2039  2040     1 
 2038  2039  2041     1 
 2040  2039  2041     1 
 2039  2041  2042     1 
 2041  2042  2043     1 
 2041  2042  2052     1 
 2043  2042  2052     1 
 2042  2043  2044     1 
 2042  2043  2045     1 
 2044  2043  2045     1 
 2043  2045  2046     1 
 2043  2045  2047     1 
 2046  2045  2047     1 
 2045  2047  2048     1 
 2045  2047  2051     1 
 2048  2047  2051     1 
 2047  2048  2049     1 
 2047  2048  2050     1 
 2049  2048  2050     1 
 2047  2051  2052     1 
 2038  2052  2042     1 
 2038  2052  2051     1 
 2042  2052  2051     1 
 2033  2053  2054     1 
 2033  2053  2055     1 
 2033  2053  2058     1 
 2054  2053  2055     1 
 2054  2053  2058     1 
 2055  2053  2058     1 
 2036  2055  2053     1 
 2036  2055  2056     1 
 2036  2055  2057     1 
 2053  2055  2056     1 
 2053  2055  2057     1 
 2056  2055  2057     1 
 2053  2058  2059     1 
 2058  2059  2060     1 
 2058  2059  2061     1 
 2058  2059  2062     1 
 2060  2059  2061     1 
 2060  2059  2062     1 
 2061  2059  2062     1 
 2059  2062  2063     1 
 2062  2063  2064     1 
 2062  2063  2065     1 
 2062  2063  2066     1 
 2064  2063  2065     1 
 2064  2063  2066     1 
 2065  2063  2066     1 
 2063  2066  2067     1 
 2063  2066  2068     1 
 2063  2066  2086     1 
 2067  2066  2068     1 
 2067  2066  2086     1 
 2068  2066  2086     1 
 2066  2068  2069     1 
 2068  2069  2070     1 
 2068  2069  2071     1 
 2068  2069  2088     1 
 2070  2069  2071     1 
 2070  2069  2088     1 
 2071  2069  2088     1 
 2069  2071  2072     1 
 2069  2071  2085     1 
 2072  2071  2085     1 
 2071  2072  2073     1 
 2071  2072  2074     1 
 2073  2072  2074     1 
 2072  2074  2075     1 
 2074  2075  2076     1 
 2074  2075  2085     1 
 2076  2075  2085     1 
 2075  2076  2077     1 
 2075  2076  2078     1 
 2077  2076  2078     1 
 2076  2078  2079     1 
 2076  2078  2080     1 
 2079  2078  2080     1 
 2078  2080  2081     1 
 2078  2080  2084     1 
 2081  2080  2084     1 
 2080  2081  2082     1 
 2080  2081  2083     1 
 2082  2081  2083     1 
 2080  2084  2085     1 
 2071  2085  2075     1 
 2071  2085  2084     1 
 2075  2085  2084     1 
 2066  2086  2087     1 
 2066  2086  2088     1 
 2066  2086  2091     1 
 2087  2086  2088     1 
 2087  2086  2091     1 
 2088  2086  2091     1 
 2069  2088  2086     1 
 2069  2088  2089     1 
 2069  2088  2090     1 
 2086  2088  2089     1 
 2086  2088  2090     1 
 2089  2088  2090     1 
 2086  2091  2092     1 
 2091  2092  2093     1 
 2091  2092  2094     1 
 2091  2092  2095     1 
 2093  2092  2094     1 
 2093  2092  2095     1 
 2094  2092  2095     1 
 2092  2095  2096     1 
 2095  2096  2097     1 
 2095  2096  2098     1 
 2095  2096  2099     1 
 2097  2096  2098     1 
 2097  2096  2099     1 
 2098  2096  2099     1 
 2096  2099  2100     1 
 2096  2099  2101     1 
 2096  2099  2118     1 
 2100  2099  2101     1 
 2100  2099  2118     1 
 2101  2099  2118     1 
 2099  2101  2102     1 
 2101  2102  2103     1 
 2101  2102  2104     1 
 2101  2102  2120     1 
 2103  2102  2104     1 
 2103  2102  2120     1 
 2104  2102  2120     1 
 2102  2104  2105     1 
 2102  2104  2117     1 
 2105  2104  2117     1 
 2104  2105  2106     1 
 2104  2105  2107     1 
 2106  2105  2107     1 
 2105  2107  2108     1 
 2107  2108  2109     1 
 2107  2108  2117     1 
 2109  2108  2117     1 
 2108  2109  2110     1 
 2108  2109  2113     1 
 2110  2109  2113     1 
 2109  2110  2111     1 
 2109  2110  2112     1 
 2111  2110  2112     1 
 2109  2113  2114     1 
 2113  2114  2115     1 
 2113  2114  2116     1 
 2115  2114  2116     1 
 2114  2116  2117     1 
 2104  2117  2108     1 
 2104  2117  2116     1 
 2108  2117  2116     1 
 2099  2118  2119     1 
 2099  2118  2120     1 
 2099  2118  2123     1 
 2119  2118  2120     1 
 2119  2118  2123     1 
 2120  2118  2123     1 
 2102  2120  2118     1 
 2102  2120  2121     1 
 2102  2120  2122     1 
 2118  2120  2121     1 
 2118  2120  2122     1 
 2121  2120  2122     1 
 2118  2123  2124     1 
 2123  2124  2125     1 
 2123  2124  2126     1 
 2123  2124  2127     1 
 2125  2124  2126     1 
 2125  2124  2127     1 
 2126  2124  2127     1 
 2124  2127  2128     1 
 2127  2128  2129     1 
 2127  2128  2130     1 
 2127  2128  2131     1 
 2129  2128  2130     1 
 2129  2128  2131     1 
 2130  2128  2131     1 
 2128  2131  2132     1 
 2128  2131  2133     1 
 2128  2131  2151     1 
 2132  2131  2133     1 
 2132  2131  2151     1 
 2133  2131  2151     1 
 2131  2133  2134     1 
 2133  2134  2135     1 
 2133  2134  2136     1 
 2133  2134  2153     1 
 2135  2134  2136     1 
 2135  2134  2153     1 
 2136  2134  2153     1 
 2134  2136  2137     1 
 2134  2136  2150     1 
 2137  2136  2150     1 
 2136  2137  2138     1 
 2136  2137  2139     1 
 2138  2137  2139     1 
 2137  2139  2140     1 
 2139  2140  2141     1 
 2139  2140  2150     1 
 2141  2140  2150     1 
 2140  2141  2142     1 
 2140  2141  2143     1 
 2142  2141  2143     1 
 2141  2143  2144     1 
 2141  2143  2145     1 
 2144  2143  2145     1 
 2143  2145  2146     1 
 2143  2145  2149     1 
 2146  2145  2149     1 
 2145  2146  2147     1 
 2145  2146  2148     1 
 2147  2146  2148     1 
 2145  2149  2150     1 
 2136  2150  2140     1 
 2136  2150  2149     1 
 2140  2150  2149     1 
 2131  2151  2152     1 
 2131  2151  2153     1 
 2131  2151  2156     1 
 2152  2151  2153     1 
 2152  2151  2156     1 
 2153  2151  2156     1 
 2134  2153  2151     1 
 2134  2153  2154     1 
 2134  2153  2155     1 
 2151  2153  2154     1 
 2151  2153  2155     1 
 2154  2153  2155     1 
 2151  2156  2157     1 
 2156  2157  2158     1 
 2156  2157  2159     1 
 2156  2157  2160     1 
 2158  2157  2159     1 
 2158  2157  2160     1 
 2159  2157  2160     1 
 2157  2160  2161     1 
 2160  2161  2162     1 
 2160  2161  2163     1 
 2160  2161  2164     1 
 2162  2161  2163     1 
 2162  2161  2164     1 
 2163  2161  2164     1 
 2161  2164  2165     1 
 2161  2164  2166     1 
 2161  2164  2181     1 
 2165  2164  2166     1 
 2165  2164  2181     1 
 2166  2164  2181     1 
 2164  2166  2167     1 
 2166  2167  2168     1 
 2166  2167  2169     1 
 2166  2167  2183     1 
 2168  2167  2169     1 
 2168  2167  2183     1 
 2169  2167  2183     1 
 2167  2169  2170     1 
 2167  2169  2179     1 
 2170  2169  2179     1 
 2169  2170  2171     1 
 2169  2170  2172     1 
 2171  2170  2172     1 
 2170  2172  2173     1 
 2170  2172  2174     1 
 2173  2172  2174     1 
 2172  2174  2175     1 
 2172  2174  2178     1 
 2175  2174  2178     1 
 2174  2175  2176     1 
 2174  2175  2177     1 
 2176  2175  2177     1 
 2174  2178  2179     1 
 2169  2179  2178     1 
 2169  2179  2180     1 
 2178  2179  2180     1 
 2164  2181  2182     1 
 2164  2181  2183     1 
 2164  2181  2186     1 
 2182  2181  2183     1 
 2182  2181  2186     1 
 2183  2181  2186     1 
 2167  2183  2181     1 
 2167  2183  2184     1 
 2167  2183  2185     1 
 2181  2183  2184     1 
 2181  2183  2185     1 
 2184  2183  2185     1 
 2181  2186  2187     1 
 2186  2187  2188     1 
 2186  2187  2189     1 
 2186  2187  2190     1 
 2188  2187  2189     1 
 2188  2187  2190     1 
 2189  2187  2190     1 
 2187  2190  2191     1 
 2190  2191  2192     1 
 2190  2191  2193     1 
 2190  2191  2194     1 
 2192  2191  2193     1 
 2192  2191  2194     1 
 2193  2191  2194     1 
 2191  2194  2195     1 
 2191  2194  2196     1 
 2191  2194  2211     1 
 2195  2194  2196     1 
 2195  2194  2211     1 
 2196  2194  2211     1 
 2194  2196  2197     1 
 2196  2197  2198     1 
 2196  2197  2199     1 
 2196  2197  2213     1 
 2198  2197  2199     1 
 2198  2197  2213     1 
 2199  2197  2213     1 
 2197  2199  2200     1 
 2197  2199  2209     1 
 2200  2199  2209     1 
 2199  2200  2201     1 
 2199  2200  2202     1 
 2201  2200  2202     1 
 2200  2202  2203     1 
 2200  2202  2204     1 
 2203  2202  2204     1 
 2202  2204  2205     1 
 2202  2204  2208     1 
 2205  2204  2208     1 
 2204  2205  2206     1 
 2204  2205  2207     1 
 2206  2205  2207     1 
 2204  2208  2209     1 
 2199  2209  2208     1 
 2199  2209  2210     1 
 2208  2209  2210     1 
 2194  2211  2212     1 
 2194  2211  2213     1 
 2194  2211  2216     1 
 2212  2211  2213     1 
 2212  2211  2216     1 
 2213  2211  2216     1 
 2197  2213  2211     1 
 2197  2213  2214     1 
 2197  2213  2215     1 
 2211  2213  2214     1 
 2211  2213  2215     1 
 2214  2213  2215     1 
 2211  2216  2217     1 
 2216  2217  2218     1 
 2216  2217  2219     1 
 2216  2217  2220     1 
 2218  2217  2219     1 
 2218  2217  2220     1 
 2219  2217  2220     1 
 2217  2220  2221     1 
 2220  2221  2222     1 
 2220  2221  2223     1 
 2220  2221  2224     1 
 2222  2221  2223     1 
 2222  2221  2224     1 
 2223  2221  2224     1 
 2221  2224  2225     1 
 2221  2224  2226     1 
 2221  2224  2244     1 
 2225  2224  2226     1 
 2225  2224  2244     1 
 2226  2224  2244     1 
 2224  2226  2227     1 
 2226  2227  2228     1 
 2226  2227  2229     1 
 2226  2227  2246     1 
 2228  2227  2229     1 
 2228  2227  2246     1 
 2229  2227  2246     1 
 2227  2229  2230     1 
 2227  2229  2243     1 
 2230  2229  2243     1 
 2229  2230  2231     1 
 2229  2230  2232     1 
 2231  2230  2232     1 
 2230  2232  2233     1 
 2232  2233  2234     1 
 2232  2233  2243     1 
 2234  2233  2243     1 
 2233  2234  2235     1 
 2233  2234  2236     1 
 2235  2234  2236     1 
 2234  2236  2237     1 
 2234  2236  2238     1 
 2237  2236  2238     1 
 2236  2238  2239     1 
 2236  2238  2242     1 
 2239  2238  2242     1 
 2238  2239  2240     1 
 2238  2239  2241     1 
 2240  2239  2241     1 
 2238  2242  2243     1 
 2229  2243  2233     1 
 2229  2243  2242     1 
 2233  2243  2242     1 
 2224  2244  2245     1 
 2224  2244  2246     1 
 2224  2244  2249     1 
 2245  2244  2246     1 
 2245  2244  2249     1 
 2246  2244  2249     1 
 2227  2246  2244     1 
 2227  2246  2247     1 
 2227  2246  2248     1 
 2244  2246  2247     1 
 2244  2246  2248     1 
 2247  2246  2248     1 
 2244  2249  2250     1 
 2249  2250  2251     1 
 2249  2250  2252     1 
 2249  2250  2253     1 
 2251  2250  2252     1 
 2251  2250  2253     1 
 2252  2250  2253     1 
 2250  2253  2254     1 
 2253  2254  2255     1 
 2253  2254  2256     1 
 2253  2254  2257     1 
 2255  2254  2256     1 
 2255  2254  2257     1 
 2256  2254  2257     1 
 2254  2257  2258     1 
 2254  2257  2259     1 
 2254  2257  2274     1 
 2258  2257  2259     1 
 2258  2257  2274     1 
 2259  2257  2274     1 
 2257  2259  2260     1 
 2259  2260  2261     1 
 2259  2260  2262     1 
 2259  2260  2276     1 
 2261  2260  2262     1 
 2261  2260  2276     1 
 2262  2260  2276     1 
 2260  2262  2263     1 
 2260  2262  2272     1 
 2263  2262  2272     1 
 2262  2263  2264     1 
 2262  2263  2265     1 
 2264  2263  2265     1 
 2263  2265  2266     1 
 2263  2265  2267     1 
 2266  2265  2267     1 
 2265  2267  2268     1 
 2265  2267  2271     1 
 2268  2267  2271     1 
 2267  2268  2269     1 
 2267  2268  2270     1 
 2269  2268  2270     1 
 2267  2271  2272     1 
 2262  2272  2271     1 
 2262  2272  2273     1 
 2271  2272  2273     1 
 2257  2274  2275     1 
 2257  2274  2276     1 
 2257  2274  2279     1 
 2275  2274  2276     1 
 2275  2274  2279     1 
 2276  2274  2279     1 
 2260  2276  2274     1 
 2260  2276  2277     1 
 2260  2276  2278     1 
 2274  2276  2277     1 
 2274  2276  2278     1 
 2277  2276  2278     1 
 2274  2279  2280     1 
 2279  2280  2281     1 
 2279  2280  2282     1 
 2279  2280  2283     1 
 2281  2280  2282     1 
 2281  2280  2283     1 
 2282  2280  2283     1 
 2280  2283  2284     1 
 2283  2284  2285     1 
 2283  2284  2286     1 
 2283  2284  2287     1 
 2285  2284  2286     1 
 2285  2284  2287     1 
 2286  2284  2287     1 
 2284  2287  2288     1 
 2284  2287  2289     1 
 2284  2287  2306     1 
 2288  2287  2289     1 
 2288  2287  2306     1 
 2289  2287  2306     1 
 2287  2289  2290     1 
 2289  2290  2291     1 
 2289  2290  2292     1 
 2289  2290  2308     1 
 2291  2290  2292     1 
 2291  2290  2308     1 
 2292  2290  2308     1 
 2290  2292  2293     1 
 2290  2292  2304     1 
 2293  2292  2304     1 
 2292  2293  2294     1 
 2292  2293  2295     1 
 2294  2293  2295     1 
 2293  2295  2296     1 
 2293  2295  2300     1 
 2296  2295  2300     1 
 2295  2296  2297     1 
 2295  2296  2298     1 
 2295  2296  2299     1 
 2297  2296  2298     1 
 2297  2296  2299     1 
 2298  2296  2299     1 
 2295  2300  2301     1 
 2295  2300  2302     1 
 2301  2300  2302     1 
 2300  2302  2303     1 
 2300  2302  2304     1 
 2303  2302  2304     1 
 2292  2304  2302     1 
 2292  2304  2305     1 
 2302  2304  2305     1 
 2287  2306  2307     1 
 2287  2306  2308     1 
 2287  2306  2311     1 
 2307  2306  2308     1 
 2307  2306  2311     1 
 2308  2306  2311     1 
 2290  2308  2306     1 
 2290  2308  2309     1 
 2290  2308  2310     1 
 2306  2308  2309     1 
 2306  2308  2310     1 
 2309  2308  2310     1 
 2306  2311  2312     1 
 2311  2312  2313     1 
 2311  2312  2314     1 
 2311  2312  2315     1 
 2313  2312  2314     1 
 2313  2312  2315     1 
 2314  2312  2315     1 
 2312  2315  2316     1 
 2315  2316  2317     1 
 2315  2316  2318     1 
 2315  2316  2319     1 
 2317  2316  2318     1 
 2317  2316  2319     1 
 2318  2316  2319     1 
 2316  2319  2320     1 
 2316  2319  2321     1 
 2316  2319  2339     1 
 2320  2319  2321     1 
 2320  2319  2339     1 
 2321  2319  2339     1 
 2319  2321  2322     1 
 2321  2322  2323     1 
 2321  2322  2324     1 
 2321  2322  2341     1 
 2323  2322  2324     1 
 2323  2322  2341     1 
 2324  2322  2341     1 
 2322  2324  2325     1 
 2322  2324  2338     1 
 2325  2324  2338     1 
 2324  2325  2326     1 
 2324  2325  2327     1 
 2326  2325  2327     1 
 2325  2327  2328     1 
 2327  2328  2329     1 
 2327  2328  2338     1 
 2329  2328  2338     1 
 2328  2329  2330     1 
 2328  2329  2331     1 
 2330  2329  2331     1 
 2329  2331  2332     1 
 2329  2331  2333     1 
 2332  2331  2333     1 
 2331  2333  2334     1 
 2331  2333  2337     1 
 2334  2333  2337     1 
 2333  2334  2335     1 
 2333  2334  2336     1 
 2335  2334  2336     1 
 2333  2337  2338     1 
 2324  2338  2328     1 
 2324  2338  2337     1 
 2328  2338  2337     1 
 2319  2339  2340     1 
 2319  2339  2341     1 
 2319  2339  2344     1 
 2340  2339  2341     1 
 2340  2339  2344     1 
 2341  2339  2344     1 
 2322  2341  2339     1 
 2322  2341  2342     1 
 2322  2341  2343     1 
 2339  2341  2342     1 
 2339  2341  2343     1 
 2342  2341  2343     1 
 2339  2344  2345     1 
 2344  2345  2346     1 
 2344  2345  2347     1 
 2344  2345  2348     1 
 2346  2345  2347     1 
 2346  2345  2348     1 
 2347  2345  2348     1 
 2345  2348  2349     1 
 2348  2349  2350     1 
 2348  2349  2351     1 
 2348  2349  2352     1 
 2350  2349  2351     1 
 2350  2349  2352     1 
 2351  2349  2352     1 
 2349  2352  2353     1 
 2349  2352  2354     1 
 2349  2352  2371     1 
 2353  2352  2354     1 
 2353  2352  2371     1 
 2354  2352  2371     1 
 2352  2354  2355     1 
 2354  2355  2356     1 
 2354  2355  2357     1 
 2354  2355  2373     1 
 2356  2355  2357     1 
 2356  2355  2373     1 
 2357  2355  2373     1 
 2355  2357  2358     1 
 2355  2357  2370     1 
 2358  2357  2370     1 
 2357  2358  2359     1 
 2357  2358  2360     1 
 2359  2358  2360     1 
 2358  2360  2361     1 
 2360  2361  2362     1 
 2360  2361  2370     1 
 2362  2361  2370     1 
 2361  2362  2363     1 
 2361  2362  2366     1 
 2363  2362  2366     1 
 2362  2363  2364     1 
 2362  2363  2365     1 
 2364  2363  2365     1 
 2362  2366  2367     1 
 2366  2367  2368     1 
 2366  2367  2369     1 
 2368  2367  2369     1 
 2367  2369  2370     1 
 2357  2370  2361     1 
 2357  2370  2369     1 
 2361  2370  2369     1 
 2352  2371  2372     1 
 2352  2371  2373     1 
 2352  2371  2376     1 
 2372  2371  2373     1 
 2372  2371  2376     1 
 2373  2371  2376     1 
 2355  2373  2371     1 
 2355  2373  2374     1 
 2355  2373  2375     1 
 2371  2373  2374     1 
 2371  2373  2375     1 
 2374  2373  2375     1 
 2371  2376  2377     1 
 2376  2377  2378     1 
 2376  2377  2379     1 
 2376  2377  2380     1 
 2378  2377  2379     1 
 2378  2377  2380     1 
 2379  2377  2380     1 
 2377  2380  2381     1 
 2380  2381  2382     1 
 2380  2381  2383     1 
 2380  2381  2384     1 
 2382  2381  2383     1 
 2382  2381  2384     1 
 2383  2381  2384     1 
 2381  2384  2385     1 
 2381  2384  2386     1 
 2381  2384  2404     1 
 2385  2384  2386     1 
 2385  2384  2404     1 
 2386  2384  2404     1 
 2384  2386  2387     1 
 2386  2387  2388     1 
 2386  2387  2389     1 
 2386  2387  2406     1 
 2388  2387  2389     1 
 2388  2387  2406     1 
 2389  2387  2406     1 
 2387  2389  2390     1 
 2387  2389  2403     1 
 2390  2389  2403     1 
 2389  2390  2391     1 
 2389  2390  2392     1 
 2391  2390  2392     1 
 2390  2392  2393     1 
 2392  2393  2394     1 
 2392  2393  2403     1 
 2394  2393  2403     1 
 2393  2394  2395     1 
 2393  2394  2396     1 
 2395  2394  2396     1 
 2394  2396  2397     1 
 2394  2396  2398     1 
 2397  2396  2398     1 
 2396  2398  2399     1 
 2396  2398  2402     1 
 2399  2398  2402     1 
 2398  2399  2400     1 
 2398  2399  2401     1 
 2400  2399  2401     1 
 2398  2402  2403     1 
 2389  2403  2393     1 
 2389  2403  2402     1 
 2393  2403  2402     1 
 2384  2404  2405     1 
 2384  2404  2406     1 
 2384  2404  2409     1 
 2405  2404  2406     1 
 2405  2404  2409     1 
 2406  2404  2409     1 
 2387  2406  2404     1 
 2387  2406  2407     1 
 2387  2406  2408     1 
 2404  2406  2407     1 
 2404  2406  2408     1 
 2407  2406  2408     1 
 2404  2409  2410     1 
 2409  2410  2411     1 
 2409  2410  2412     1 
 2409  2410  2413     1 
 2411  2410  2412     1 
 2411  2410  2413     1 
 2412  2410  2413     1 
 2410  2413  2414     1 
 2413  2414  2415     1 
 2413  2414  2416     1 
 2413  2414  2417     1 
 2415  2414  2416     1 
 2415  2414  2417     1 
 2416  2414  2417     1 
 2414  2417  2418     1 
 2414  2417  2419     1 
 2414  2417  2434     1 
 2418  2417  2419     1 
 2418  2417  2434     1 
 2419  2417  2434     1 
 2417  2419  2420     1 
 2419  2420  2421     1 
 2419  2420  2422     1 
 2419  2420  2436     1 
 2421  2420  2422     1 
 2421  2420  2436     1 
 2422  2420  2436     1 
 2420  2422  2423     1 
 2420  2422  2432     1 
 2423  2422  2432     1 
 2422  2423  2424     1 
 2422  2423  2425     1 
 2424  2423  2425     1 
 2423  2425  2426     1 
 2423  2425  2427     1 
 2426  2425  2427     1 
 2425  2427  2428     1 
 2425  2427  2431     1 
 2428  2427  2431     1 
 2427  2428  2429     1 
 2427  2428  2430     1 
 2429  2428  2430     1 
 2427  2431  2432     1 
 2422  2432  2431     1 
 2422  2432  2433     1 
 2431  2432  2433     1 
 2417  2434  2435     1 
 2417  2434  2436     1 
 2417  2434  2439     1 
 2435  2434  2436     1 
 2435  2434  2439     1 
 2436  2434  2439     1 
 2420  2436  2434     1 
 2420  2436  2437     1 
 2420  2436  2438     1 
 2434  2436  2437     1 
 2434  2436  2438     1 
 2437  2436  2438     1 
 2434  2439  2440     1 
 2439  2440  2441     1 
 2439  2440  2442     1 
 2439  2440  2443     1 
 2441  2440  2442     1 
 2441  2440  2443     1 
 2442  2440  2443     1 
 2440  2443  2444     1 
 2443  2444  2445     1 
 2443  2444  2446     1 
 2443  2444  2447     1 
 2445  2444  2446     1 
 2445  2444  2447     1 
 2446  2444  2447     1 
 2444  2447  2448     1 
 2444  2447  2449     1 
 2444  2447  2464     1 
 2448  2447  2449     1 
 2448  2447  2464     1 
 2449  2447  2464     1 
 2447  2449  2450     1 
 2449  2450  2451     1 
 2449  2450  2452     1 
 2449  2450  2466     1 
 2451  2450  2452     1 
 2451  2450  2466     1 
 2452  2450  2466     1 
 2450  2452  2453     1 
 2450  2452  2462     1 
 2453  2452  2462     1 
 2452  2453  2454     1 
 2452  2453  2455     1 
 2454  2453  2455     1 
 2453  2455  2456     1 
 2453  2455  2457     1 
 2456  2455  2457     1 
 2455  2457  2458     1 
 2455  2457  2461     1 
 2458  2457  2461     1 
 2457  2458  2459     1 
 2457  2458  2460     1 
 2459  2458  2460     1 
 2457  2461  2462     1 
 2452  2462  2461     1 
 2452  2462  2463     1 
 2461  2462  2463     1 
 2447  2464  2465     1 
 2447  2464  2466     1 
 2447  2464  2469     1 
 2465  2464  2466     1 
 2465  2464  2469     1 
 2466  2464  2469     1 
 2450  2466  2464     1 
 2450  2466  2467     1 
 2450  2466  2468     1 
 2464  2466  2467     1 
 2464  2466  2468     1 
 2467  2466  2468     1 
 2464  2469  2470     1 
 2469  2470  2471     1 
 2469  2470  2472     1 
 2469  2470  2473     1 
 2471  2470  2472     1 
 2471  2470  2473     1 
 2472  2470  2473     1 
 2470  2473  2474     1 
 2473  2474  2475     1 
 2473  2474  2476     1 
 2473  2474  2477     1 
 2475  2474  2476     1 
 2475  2474  2477     1 
 2476  2474  2477     1 
 2474  2477  2478     1 
 2474  2477  2479     1 
 2474  2477  2496     1 
 2478  2477  2479     1 
 2478  2477  2496     1 
 2479  2477  2496     1 
 2477  2479  2480     1 
 2479  2480  2481     1 
 2479  2480  2482     1 
 2479  2480  2498     1 
 2481  2480  2482     1 
 2481  2480  2498     1 
 2482  2480  2498     1 
 2480  2482  2483     1 
 2480  2482  2494     1 
 2483  2482  2494     1 
 2482  2483  2484     1 
 2482  2483  2485     1 
 2484  2483  2485     1 
 2483  2485  2486     1 
 2483  2485  2490     1 
 2486  2485  2490     1 
 2485  2486  2487     1 
 2485  2486  2488     1 
 2485  2486  2489     1 
 2487  2486  2488     1 
 2487  2486  2489     1 
 2488  2486  2489     1 
 2485  2490  2491     1 
 2485  2490  2492     1 
 2491  2490  2492     1 
 2490  2492  2493     1 
 2490  2492  2494     1 
 2493  2492  2494     1 
 2482  2494  2492     1 
 2482  2494  2495     1 
 2492  2494  2495     1 
 2477  2496  2497     1 
 2477  2496  2498     1 
 2477  2496  2501     1 
 2497  2496  2498     1 
 2497  2496  2501     1 
 2498  2496  2501     1 
 2480  2498  2496     1 
 2480  2498  2499     1 
 2480  2498  2500     1 
 2496  2498  2499     1 
 2496  2498  2500     1 
 2499  2498  2500     1 
 2496  2501  2502     1 
 2501  2502  2503     1 
 2501  2502  2504     1 
 2501  2502  2505     1 
 2503  2502  2504     1 
 2503  2502  2505     1 
 2504  2502  2505     1 
 2502  2505  2506     1 
 2505  2506  2507     1 
 2505  2506  2508     1 
 2505  2506  2509     1 
 2507  2506  2508     1 
 2507  2506  2509     1 
 2508  2506  2509     1 
 2506  2509  2510     1 
 2506  2509  2511     1 
 2506  2509  2526     1 
 2510  2509  2511     1 
 2510  2509  2526     1 
 2511  2509  2526     1 
 2509  2511  2512     1 
 2511  2512  2513     1 
 2511  2512  2514     1 
 2511  2512  2528     1 
 2513  2512  2514     1 
 2513  2512  2528     1 
 2514  2512  2528     1 
 2512  2514  2515     1 
 2512  2514  2524     1 
 2515  2514  2524     1 
 2514  2515  2516     1 
 2514  2515  2517     1 
 2516  2515  2517     1 
 2515  2517  2518     1 
 2515  2517  2519     1 
 2518  2517  2519     1 
 2517  2519  2520     1 
 2517  2519  2523     1 
 2520  2519  2523     1 
 2519  2520  2521     1 
 2519  2520  2522     1 
 2521  2520  2522     1 
 2519  2523  2524     1 
 2514  2524  2523     1 
 2514  2524  2525     1 
 2523  2524  2525     1 
 2509  2526  2527     1 
 2509  2526  2528     1 
 2509  2526  2531     1 
 2527  2526  2528     1 
 2527  2526  2531     1 
 2528  2526  2531     1 
 2512  2528  2526     1 
 2512  2528  2529     1 
 2512  2528  2530     1 
 2526  2528  2529     1 
 2526  2528  2530     1 
 2529  2528  2530     1 
 2526  2531  2532     1 
 2531  2532  2533     1 
 2531  2532  2534     1 
 2531  2532  2535     1 
 2533  2532  2534     1 
 2533  2532  2535     1 
 2534  2532  2535     1 
 2532  2535  2536     1 
 2535  2536  2537     1 
 2535  2536  2538     1 
 2535  2536  2539     1 
 2537  2536  2538     1 
 2537  2536  2539     1 
 2538  2536  2539     1 
 2536  2539  2540     1 
 2536  2539  2541     1 
 2536  2539  2558     1 
 2540  2539  2541     1 
 2540  2539  2558     1 
 2541  2539  2558     1 
 2539  2541  2542     1 
 2541  2542  2543     1 
 2541  2542  2544     1 
 2541  2542  2560     1 
 2543  2542  2544     1 
 2543  2542  2560     1 
 2544  2542  2560     1 
 2542  2544  2545     1 
 2542  2544  2556     1 
 2545  2544  2556     1 
 2544  2545  2546     1 
 2544  2545  2547     1 
 2546  2545  2547     1 
 2545  2547  2548     1 
 2545  2547  2552     1 
 2548  2547  2552     1 
 2547  2548  2549     1 
 2547  2548  2550     1 
 2547  2548  2551     1 
 2549  2548  2550     1 
 2549  2548  2551     1 
 2550  2548  2551     1 
 2547  2552  2553     1 
 2547  2552  2554     1 
 2553  2552  2554     1 
 2552  2554  2555     1 
 2552  2554  2556     1 
 2555  2554  2556     1 
 2544  2556  2554     1 
 2544  2556  2557     1 
 2554  2556  2557     1 
 2539  2558  2559     1 
 2539  2558  2560     1 
 2539  2558  2563     1 
 2559  2558  2560     1 
 2559  2558  2563     1 
 2560  2558  2563     1 
 2542  2560  2558     1 
 2542  2560  2561     1 
 2542  2560  2562     1 
 2558  2560  2561     1 
 2558  2560  2562     1 
 2561  2560  2562     1 
 2558  2563  2564     1 
 2563  2564  2565     1 
 2563  2564  2566     1 
 2563  2564  2567     1 
 2565  2564  2566     1 
 2565  2564  2567     1 
 2566  2564  2567     1 
 2564  2567  2568     1 
 2567  2568  2569     1 
 2567  2568  2570     1 
 2567  2568  2571     1 
 2569  2568  2570     1 
 2569  2568  2571     1 
 2570  2568  2571     1 
 2568  2571  2572     1 
 2568  2571  2573     1 
 2568  2571  2591     1 
 2572  2571  2573     1 
 2572  2571  2591     1 
 2573  2571  2591     1 
 2571  2573  2574     1 
 2573  2574  2575     1 
 2573  2574  2576     1 
 2573  2574  2593     1 
 2575  2574  2576     1 
 2575  2574  2593     1 
 2576  2574  2593     1 
 2574  2576  2577     1 
 2574  2576  2590     1 
 2577  2576  2590     1 
 2576  2577  2578     1 
 2576  2577  2579     1 
 2578  2577  2579     1 
 2577  2579  2580     1 
 2579  2580  2581     1 
 2579  2580  2590     1 
 2581  2580  2590     1 
 2580  2581  2582     1 
 2580  2581  2583     1 
 2582  2581  2583     1 
 2581  2583  2584     1 
 2581  2583  2585     1 
 2584  2583  2585     1 
 2583  2585  2586     1 
 2583  2585  2589     1 
 2586  2585  2589     1 
 2585  2586  2587     1 
 2585  2586  2588     1 
 2587  2586  2588     1 
 2585  2589  2590     1 
 2576  2590  2580     1 
 2576  2590  2589     1 
 2580  2590  2589     1 
 2571  2591  2592     1 
 2571  2591  2593     1 
 2571  2591  2596     1 
 2592  2591  2593     1 
 2592  2591  2596     1 
 2593  2591  2596     1 
 2574  2593  2591     1 
 2574  2593  2594     1 
 2574  2593  2595     1 
 2591  2593  2594     1 
 2591  2593  2595     1 
 2594  2593  2595     1 
 2591  2596  2597     1 
 2596  2597  2598     1 
 2596  2597  2599     1 
 2596  2597  2600     1 
 2598  2597  2599     1 
 2598  2597  2600     1 
 2599  2597  2600     1 
 2597  2600  2601     1 
 2600  2601  2602     1 
 2600  2601  2603     1 
 2600  2601  2604     1 
 2602  2601  2603     1 
 2602  2601  2604     1 
 2603  2601  2604     1 
 2601  2604  2605     1 
 2601  2604  2606     1 
 2601  2604  2624     1 
 2605  2604  2606     1 
 2605  2604  2624     1 
 2606  2604  2624     1 
 2604  2606  2607     1 
 2606  2607  2608     1 
 2606  2607  2609     1 
 2606  2607  2626     1 
 2608  2607  2609     1 
 2608  2607  2626     1 
 2609  2607  2626     1 
 2607  2609  2610     1 
 2607  2609  2623     1 
 2610  2609  2623     1 
 2609  2610  2611     1 
 2609  2610  2612     1 
 2611  2610  2612     1 
 2610  2612  2613     1 
 2612  2613  2614     1 
 2612  2613  2623     1 
 2614  2613  2623     1 
 2613  2614  2615     1 
 2613  2614  2616     1 
 2615  2614  2616     1 
 2614  2616  2617     1 
 2614  2616  2618     1 
 2617  2616  2618     1 
 2616  2618  2619     1 
 2616  2618  2622     1 
 2619  2618  2622     1 
 2618  2619  2620     1 
 2618  2619  2621     1 
 2620  2619  2621     1 
 2618  2622  2623     1 
 2609  2623  2613     1 
 2609  2623  2622     1 
 2613  2623  2622     1 
 2604  2624  2625     1 
 2604  2624  2626     1 
 2604  2624  2629     1 
 2625  2624  2626     1 
 2625  2624  2629     1 
 2626  2624  2629     1 
 2607  2626  2624     1 
 2607  2626  2627     1 
 2607  2626  2628     1 
 2624  2626  2627     1 
 2624  2626  2628     1 
 2627  2626  2628     1 
 2624  2629  2630     1 
 2629  2630  2631     1 
 2629  2630  2632     1 
 2629  2630  2633     1 
 2631  2630  2632     1 
 2631  2630  2633     1 
 2632  2630  2633     1 
 2630  2633  2634     1 
 2633  2634  2635     1 
 2633  2634  2636     1 
 2633  2634  2637     1 
 2635  2634  2636     1 
 2635  2634  2637     1 
 2636  2634  2637     1 
 2634  2637  2638     1 
 2634  2637  2639     1 
 2634  2637  2654     1 
 2638  2637  2639     1 
 2638  2637  2654     1 
 2639  2637  2654     1 
 2637  2639  2640     1 
 2639  2640  2641     1 
 2639  2640  2642     1 
 2639  2640  2656     1 
 2641  2640  2642     1 
 2641  2640  2656     1 
 2642  2640  2656     1 
 2640  2642  2643     1 
 2640  2642  2652     1 
 2643  2642  2652     1 
 2642  2643  2644     1 
 2642  2643  2645     1 
 2644  2643  2645     1 
 2643  2645  2646     1 
 2643  2645  2647     1 
 2646  2645  2647     1 
 2645  2647  2648     1 
 2645  2647  2651     1 
 2648  2647  2651     1 
 2647  2648  2649     1 
 2647  2648  2650     1 
 2649  2648  2650     1 
 2647  2651  2652     1 
 2642  2652  2651     1 
 2642  2652  2653     1 
 2651  2652  2653     1 
 2637  2654  2655     1 
 2637  2654  2656     1 
 2637  2654  2659     1 
 2655  2654  2656     1 
 2655  2654  2659     1 
 2656  2654  2659     1 
 2640  2656  2654     1 
 2640  2656  2657     1 
 2640  2656  2658     1 
 2654  2656  2657     1 
 2654  2656  2658     1 
 2657  2656  2658     1 
 2654  2659  2660     1 
 2659  2660  2661     1 
 2659  2660  2662     1 
 2659  2660  2663     1 
 2661  2660  2662     1 
 2661  2660  2663     1 
 2662  2660  2663     1 
 2660  2663  2664     1 
 2663  2664  2665     1 
 2663  2664  2666     1 
 2663  2664  2667     1 
 2665  2664  2666     1 
 2665  2664  2667     1 
 2666  2664  2667     1 
 2664  2667  2668     1 
 2664  2667  2669     1 
 2664  2667  2684     1 
 2668  2667  2669     1 
 2668  2667  2684     1 
 2669  2667  2684     1 
 2667  2669  2670     1 
 2669  2670  2671     1 
 2669  2670  2672     1 
 2669  2670  2686     1 
 2671  2670  2672     1 
 2671  2670  2686     1 
 2672  2670  2686     1 
 2670  2672  2673     1 
 2670  2672  2682     1 
 2673  2672  2682     1 
 2672  2673  2674     1 
 2672  2673  2675     1 
 2674  2673  2675     1 
 2673  2675  2676     1 
 2673  2675  2677     1 
 2676  2675  2677     1 
 2675  2677  2678     1 
 2675  2677  2681     1 
 2678  2677  2681     1 
 2677  2678  2679     1 
 2677  2678  2680     1 
 2679  2678  2680     1 
 2677  2681  2682     1 
 2672  2682  2681     1 
 2672  2682  2683     1 
 2681  2682  2683     1 
 2667  2684  2685     1 
 2667  2684  2686     1 
 2667  2684  2689     1 
 2685  2684  2686     1 
 2685  2684  2689     1 
 2686  2684  2689     1 
 2670  2686  2684     1 
 2670  2686  2687     1 
 2670  2686  2688     1 
 2684  2686  2687     1 
 2684  2686  2688     1 
 2687  2686  2688     1 
 2684  2689  2690     1 
 2689  2690  2691     1 
 2689  2690  2692     1 
 2689  2690  2693     1 
 2691  2690  2692     1 
 2691  2690  2693     1 
 2692  2690  2693     1 
 2690  2693  2694     1 
 2693  2694  2695     1 
 2693  2694  2696     1 
 2693  2694  2697     1 
 2695  2694  2696     1 
 2695  2694  2697     1 
 2696  2694  2697     1 
 2694  2697  2698     1 
 2694  2697  2699     1 
 2694  2697  2714     1 
 2698  2697  2699     1 
 2698  2697  2714     1 
 2699  2697  2714     1 
 2697  2699  2700     1 
 2699  2700  2701     1 
 2699  2700  2702     1 
 2699  2700  2716     1 
 2701  2700  2702     1 
 2701  2700  2716     1 
 2702  2700  2716     1 
 2700  2702  2703     1 
 2700  2702  2712     1 
 2703  2702  2712     1 
 2702  2703  2704     1 
 2702  2703  2705     1 
 2704  2703  2705     1 
 2703  2705  2706     1 
 2703  2705  2707     1 
 2706  2705  2707     1 
 2705  2707  2708     1 
 2705  2707  2711     1 
 2708  2707  2711     1 
 2707  2708  2709     1 
 2707  2708  2710     1 
 2709  2708  2710     1 
 2707  2711  2712     1 
 2702  2712  2711     1 
 2702  2712  2713     1 
 2711  2712  2713     1 
 2697  2714  2715     1 
 2697  2714  2716     1 
 2697  2714  2719     1 
 2715  2714  2716     1 
 2715  2714  2719     1 
 2716  2714  2719     1 
 2700  2716  2714     1 
 2700  2716  2717     1 
 2700  2716  2718     1 
 2714  2716  2717     1 
 2714  2716  2718     1 
 2717  2716  2718     1 
 2714  2719  2720     1 
 2719  2720  2721     1 
 2719  2720  2722     1 
 2719  2720  2723     1 
 2721  2720  2722     1 
 2721  2720  2723     1 
 2722  2720  2723     1 
 2720  2723  2724     1 
 2723  2724  2725     1 
 2723  2724  2726     1 
 2723  2724  2727     1 
 2725  2724  2726     1 
 2725  2724  2727     1 
 2726  2724  2727     1 
 2724  2727  2728     1 
 2724  2727  2729     1 
 2724  2727  2744     1 
 2728  2727  2729     1 
 2728  2727  2744     1 
 2729  2727  2744     1 
 2727  2729  2730     1 
 2729  2730  2731     1 
 2729  2730  2732     1 
 2729  2730  2746     1 
 2731  2730  2732     1 
 2731  2730  2746     1 
 2732  2730  2746     1 
 2730  2732  2733     1 
 2730  2732  2742     1 
 2733  2732  2742     1 
 2732  2733  2734     1 
 2732  2733  2735     1 
 2734  2733  2735     1 
 2733  2735  2736     1 
 2733  2735  2737     1 
 2736  2735  2737     1 
 2735  2737  2738     1 
 2735  2737  2741     1 
 2738  2737  2741     1 
 2737  2738  2739     1 
 2737  2738  2740     1 
 2739  2738  2740     1 
 2737  2741  2742     1 
 2732  2742  2741     1 
 2732  2742  2743     1 
 2741  2742  2743     1 
 2727  2744  2745     1 
 2727  2744  2746     1 
 2727  2744  2749     1 
 2745  2744  2746     1 
 2745  2744  2749     1 
 2746  2744  2749     1 
 2730  2746  2744     1 
 2730  2746  2747     1 
 2730  2746  2748     1 
 2744  2746  2747     1 
 2744  2746  2748     1 
 2747  2746  2748     1 
 2744  2749  2750     1 
 2749  2750  2751     1 
 2749  2750  2752     1 
 2749  2750  2753     1 
 2751  2750  2752     1 
 2751  2750  2753     1 
 2752  2750  2753     1 
 2750  2753  2754     1 
 2753  2754  2755     1 
 2753  2754  2756     1 
 2753  2754  2757     1 
 2755  2754  2756     1 
 2755  2754  2757     1 
 2756  2754  2757     1 
 2754  2757  2758     1 
 2754  2757  2759     1 
 2754  2757  2777     1 
 2758  2757  2759     1 
 2758  2757  2777     1 
 2759  2757  2777     1 
 2757  2759  2760     1 
 2759  2760  2761     1 
 2759  2760  2762     1 
 2759  2760  2779     1 
 2761  2760  2762     1 
 2761  2760  2779     1 
 2762  2760  2779     1 
 2760  2762  2763     1 
 2760  2762  2776     1 
 2763  2762  2776     1 
 2762  2763  2764     1 
 2762  2763  2765     1 
 2764  2763  2765     1 
 2763  2765  2766     1 
 2765  2766  2767     1 
 2765  2766  2776     1 
 2767  2766  2776     1 
 2766  2767  2768     1 
 2766  2767  2769     1 
 2768  2767  2769     1 
 2767  2769  2770     1 
 2767  2769  2771     1 
 2770  2769  2771     1 
 2769  2771  2772     1 
 2769  2771  2775     1 
 2772  2771  2775     1 
 2771  2772  2773     1 
 2771  2772  2774     1 
 2773  2772  2774     1 
 2771  2775  2776     1 
 2762  2776  2766     1 
 2762  2776  2775     1 
 2766  2776  2775     1 
 2757  2777  2778     1 
 2757  2777  2779     1 
 2757  2777  2782     1 
 2778  2777  2779     1 
 2778  2777  2782     1 
 2779  2777  2782     1 
 2760  2779  2777     1 
 2760  2779  2780     1 
 2760  2779  2781     1 
 2777  2779  2780     1 
 2777  2779  2781     1 
 2780  2779  2781     1 
 2777  2782  2783     1 
 2782  2783  2784     1 
 2782  2783  2785     1 
 2782  2783  2786     1 
 2784  2783  2785     1 
 2784  2783  2786     1 
 2785  2783  2786     1 
 2783  2786  2787     1 
 2786  2787  2788     1 
 2786  2787  2789     1 
 2786  2787  2790     1 
 2788  2787  2789     1 
 2788  2787  2790     1 
 2789  2787  2790     1 
 2787  2790  2791     1 
 2787  2790  2792     1 
 2787  2790  2807     1 
 2791  2790  2792     1 
 2791  2790  2807     1 
 2792  2790  2807     1 
 2790  2792  2793     1 
 2792  2793  2794     1 
 2792  2793  2795     1 
 2792  2793  2809     1 
 2794  2793  2795     1 
 2794  2793  2809     1 
 2795  2793  2809     1 
 2793  2795  2796     1 
 2793  2795  2805     1 
 2796  2795  2805     1 
 2795  2796  2797     1 
 2795  2796  2798     1 
 2797  2796  2798     1 
 2796  2798  2799     1 
 2796  2798  2800     1 
 2799  2798  2800     1 
 2798  2800  2801     1 
 2798  2800  2804     1 
 2801  2800  2804     1 
 2800  2801  2802     1 
 2800  2801  2803     1 
 2802  2801  2803     1 
 2800  2804  2805     1 
 2795  2805  2804     1 
 2795  2805  2806     1 
 2804  2805  2806     1 
 2790  2807  2808     1 
 2790  2807  2809     1 
 2790  2807  2812     1 
 2808  2807  2809     1 
 2808  2807  2812     1 
 2809  2807  2812     1 
 2793  2809  2807     1 
 2793  2809  2810     1 
 2793  2809  2811     1 
 2807  2809  2810     1 
 2807  2809  2811     1 
 2810  2809  2811     1 
 2807  2812  2813     1 
 2812  2813  2814     1 
 2812  2813  2815     1 
 2812  2813  2816     1 
 2814  2813  2815     1 
 2814  2813  2816     1 
 2815  2813  2816     1 
 2813  2816  2817     1 
 2816  2817  2818     1 
 2816  2817  2819     1 
 2816  2817  2820     1 
 2818  2817  2819     1 
 2818  2817  2820     1 
 2819  2817  2820     1 
 2817  2820  2821     1 
 2817  2820  2822     1 
 2817  2820  2837     1 
 2821  2820  2822     1 
 2821  2820  2837     1 
 2822  2820  2837     1 
 2820  2822  2823     1 
 2822  2823  2824     1 
 2822  2823  2825     1 
 2822  2823  2839     1 
 2824  2823  2825     1 
 2824  2823  2839     1 
 2825  2823  2839     1 
 2823  2825  2826     1 
 2823  2825  2835     1 
 2826  2825  2835     1 
 2825  2826  2827     1 
 2825  2826  2828     1 
 2827  2826  2828     1 
 2826  2828  2829     1 
 2826  2828  2830     1 
 2829  2828  2830     1 
 2828  2830  2831     1 
 2828  2830  2834     1 
 2831  2830  2834     1 
 2830  2831  2832     1 
 2830  2831  2833     1 
 2832  2831  2833     1 
 2830  2834  2835     1 
 2825  2835  2834     1 
 2825  2835  2836     1 
 2834  2835  2836     1 
 2820  2837  2838     1 
 2820  2837  2839     1 
 2820  2837  2842     1 
 2838  2837  2839     1 
 2838  2837  2842     1 
 2839  2837  2842     1 
 2823  2839  2837     1 
 2823  2839  2840     1 
 2823  2839  2841     1 
 2837  2839  2840     1 
 2837  2839  2841     1 
 2840  2839  2841     1 
 2837  2842  2843     1 
 2842  2843  2844     1 
 2842  2843  2845     1 
 2842  2843  2846     1 
 2844  2843  2845     1 
 2844  2843  2846     1 
 2845  2843  2846     1 
 2843  2846  2847     1 
 2846  2847  2848     1 
 2846  2847  2849     1 
 2846  2847  2850     1 
 2848  2847  2849     1 
 2848  2847  2850     1 
 2849  2847  2850     1 
 2847  2850  2851     1 
 2847  2850  2852     1 
 2847  2850  2870     1 
 2851  2850  2852     1 
 2851  2850  2870     1 
 2852  2850  2870     1 
 2850  2852  2853     1 
 2852  2853  2854     1 
 2852  2853  2855     1 
 2852  2853  2872     1 
 2854  2853  2855     1 
 2854  2853  2872     1 
 2855  2853  2872     1 
 2853  2855  2856     1 
 2853  2855  2869     1 
 2856  2855  2869     1 
 2855  2856  2857     1 
 2855  2856  2858     1 
 2857  2856  2858     1 
 2856  2858  2859     1 
 2858  2859  2860     1 
 2858  2859  2869     1 
 2860  2859  2869     1 
 2859  2860  2861     1 
 2859  2860  2862     1 
 2861  2860  2862     1 
 2860  2862  2863     1 
 2860  2862  2864     1 
 2863  2862  2864     1 
 2862  2864  2865     1 
 2862  2864  2868     1 
 2865  2864  2868     1 
 2864  2865  2866     1 
 2864  2865  2867     1 
 2866  2865  2867     1 
 2864  2868  2869     1 
 2855  2869  2859     1 
 2855  2869  2868     1 
 2859  2869  2868     1 
 2850  2870  2871     1 
 2850  2870  2872     1 
 2850  2870  2875     1 
 2871  2870  2872     1 
 2871  2870  2875     1 
 2872  2870  2875     1 
 2853  2872  2870     1 
 2853  2872  2873     1 
 2853  2872  2874     1 
 2870  2872  2873     1 
 2870  2872  2874     1 
 2873  2872  2874     1 
 2870  2875  2876     1 
 2875  2876  2877     1 
 2875  2876  2878     1 
 2875  2876  2879     1 
 2877  2876  2878     1 
 2877  2876  2879     1 
 2878  2876  2879     1 
 2876  2879  2880     1 
 2879  2880  2881     1 
 2879  2880  2882     1 
 2879  2880  2883     1 
 2881  2880  2882     1 
 2881  2880  2883     1 
 2882  2880  2883     1 
 2880  2883  2884     1 
 2880  2883  2885     1 
 2880  2883  2900     1 
 2884  2883  2885     1 
 2884  2883  2900     1 
 2885  2883  2900     1 
 2883  2885  2886     1 
 2885  2886  2887     1 
 2885  2886  2888     1 
 2885  2886  2902     1 
 2887  2886  2888     1 
 2887  2886  2902     1 
 2888  2886  2902     1 
 2886  2888  2889     1 
 2886  2888  2898     1 
 2889  2888  2898     1 
 2888  2889  2890     1 
 2888  2889  2891     1 
 2890  2889  2891     1 
 2889  2891  2892     1 
 2889  2891  2893     1 
 2892  2891  2893     1 
 2891  2893  2894     1 
 2891  2893  2897     1 
 2894  2893  2897     1 
 2893  2894  2895     1 
 2893  2894  2896     1 
 2895  2894  2896     1 
 2893  2897  2898     1 
 2888  2898  2897     1 
 2888  2898  2899     1 
 2897  2898  2899     1 
 2883  2900  2901     1 
 2883  2900  2902     1 
 2883  2900  2905     1 
 2901  2900  2902     1 
 2901  2900  2905     1 
 2902  2900  2905     1 
 2886  2902  2900     1 
 2886  2902  2903     1 
 2886  2902  2904     1 
 2900  2902  2903     1 
 2900  2902  2904     1 
 2903  2902  2904     1 
 2900  2905  2906     1 
 2905  2906  2907     1 
 2905  2906  2908     1 
 2905  2906  2909     1 
 2907  2906  2908     1 
 2907  2906  2909     1 
 2908  2906  2909     1 
 2906  2909  2910     1 
 2909  2910  2911     1 
 2909  2910  2912     1 
 2909  2910  2913     1 
 2911  2910  2912     1 
 2911  2910  2913     1 
 2912  2910  2913     1 
 2910  2913  2914     1 
 2910  2913  2915     1 
 2910  2913  2930     1 
 2914  2913  2915     1 
 2914  2913  2930     1 
 2915  2913  2930     1 
 2913  2915  2916     1 
 2915  2916  2917     1 
 2915  2916  2918     1 
 2915  2916  2932     1 
 2917  2916  2918     1 
 2917  2916  2932     1 
 2918  2916  2932     1 
 2916  2918  2919     1 
 2916  2918  2928     1 
 2919  2918  2928     1 
 2918  2919  2920     1 
 2918  2919  2921     1 
 2920  2919  2921     1 
 2919  2921  2922     1 
 2919  2921  2923     1 
 2922  2921  2923     1 
 2921  2923  2924     1 
 2921  2923  2927     1 
 2924  2923  2927     1 
 2923  2924  2925     1 
 2923  2924  2926     1 
 2925  2924  2926     1 
 2923  2927  2928     1 
 2918  2928  2927     1 
 2918  2928  2929     1 
 2927  2928  2929     1 
 2913  2930  2931     1 
 2913  2930  2932     1 
 2913  2930  2935     1 
 2931  2930  2932     1 
 2931  2930  2935     1 
 2932  2930  2935     1 
 2916  2932  2930     1 
 2916  2932  2933     1 
 2916  2932  2934     1 
 2930  2932  2933     1 
 2930  2932  2934     1 
 2933  2932  2934     1 
 2930  2935  2936     1 
 2935  2936  2937     1 
 2935  2936  2938     1 
 2935  2936  2939     1 
 2937  2936  2938     1 
 2937  2936  2939     1 
 2938  2936  2939     1 
 2936  2939  2940     1 
 2939  2940  2941     1 
 2939  2940  2942     1 
 2939  2940  2943     1 
 2941  2940  2942     1 
 2941  2940  2943     1 
 2942  2940  2943     1 
 2940  2943  2944     1 
 2940  2943  2945     1 
 2940  2943  2963     1 
 2944  2943  2945     1 
 2944  2943  2963     1 
 2945  2943  2963     1 
 2943  2945  2946     1 
 2945  2946  2947     1 
 2945  2946  2948     1 
 2945  2946  2965     1 
 2947  2946  2948     1 
 2947  2946  2965     1 
 2948  2946  2965     1 
 2946  2948  2949     1 
 2946  2948  2962     1 
 2949  2948  2962     1 
 2948  2949  2950     1 
 2948  2949  2951     1 
 2950  2949  2951     1 
 2949  2951  2952     1 
 2951  2952  2953     1 
 2951  2952  2962     1 
 2953  2952  2962     1 
 2952  2953  2954     1 
 2952  2953  2955     1 
 2954  2953  2955     1 
 2953  2955  2956     1 
 2953  2955  2957     1 
 2956  2955  2957     1 
 2955  2957  2958     1 
 2955  2957  2961     1 
 2958  2957  2961     1 
 2957  2958  2959     1 
 2957  2958  2960     1 
 2959  2958  2960     1 
 2957  2961  2962     1 
 2948  2962  2952     1 
 2948  2962  2961     1 
 2952  2962  2961     1 
 2943  2963  2964     1 
 2943  2963  2965     1 
 2943  2963  2968     1 
 2964  2963  2965     1 
 2964  2963  2968     1 
 2965  2963  2968     1 
 2946  2965  2963     1 
 2946  2965  2966     1 
 2946  2965  2967     1 
 2963  2965  2966     1 
 2963  2965  2967     1 
 2966  2965  2967     1 
 2963  2968  2969     1 
 2968  2969  2970     1 
 2968  2969  2971     1 
 2968  2969  2972     1 
 2970  2969  2971     1 
 2970  2969  2972     1 
 2971  2969  2972     1 
 2969  2972  2973     1 
 2972  2973  2974     1 
 2972  2973  2975     1 
 2972  2973  2976     1 
 2974  2973  2975     1 
 2974  2973  2976     1 
 2975  2973  2976     1 
 2973  2976  2977     1 
 2973  2976  2978     1 
 2973  2976  2993     1 
 2977  2976  2978     1 
 2977  2976  2993     1 
 2978  2976  2993     1 
 2976  2978  2979     1 
 2978  2979  2980     1 
 2978  2979  2981     1 
 2978  2979  2995     1 
 2980  2979  2981     1 
 2980  2979  2995     1 
 2981  2979  2995     1 
 2979  2981  2982     1 
 2979  2981  2991     1 
 2982  2981  2991     1 
 2981  2982  2983     1 
 2981  2982  2984     1 
 2983  2982  2984     1 
 2982  2984  2985     1 
 2982  2984  2986     1 
 2985  2984  2986     1 
 2984  2986  2987     1 
 2984  2986  2990     1 
 2987  2986  2990     1 
 2986  2987  2988     1 
 2986  2987  2989     1 
 2988  2987  2989     1 
 2986  2990  2991     1 
 2981  2991  2990     1 
 2981  2991  2992     1 
 2990  2991  2992     1 
 2976  2993  2994     1 
 2976  2993  2995     1 
 2976  2993  2998     1 
 2994  2993  2995     1 
 2994  2993  2998     1 
 2995  2993  2998     1 
 2979  2995  2993     1 
 2979  2995  2996     1 
 2979  2995  2997     1 
 2993  2995  2996     1 
 2993  2995  2997     1 
 2996  2995  2997     1 
 2993  2998  2999     1 
 2998  2999  3000     1 
 2998  2999  3001     1 
 2998  2999  3002     1 
 3000  2999  3001     1 
 3000  2999  3002     1 
 3001  2999  3002     1 
 2999  3002  3003     1 
 3002  3003  3004     1 
 3002  3003  3005     1 
 3002  3003  3006     1 
 3004  3003  3005     1 
 3004  3003  3006     1 
 3005  3003  3006     1 
 3003  3006  3007     1 
 3003  3006  3008     1 
 3003  3006  3023     1 
 3007  3006  3008     1 
 3007  3006  3023     1 
 3008  3006  3023     1 
 3006  3008  3009     1 
 3008  3009  3010     1 
 3008  3009  3011     1 
 3008  3009  3025     1 
 3010  3009  3011     1 
 3010  3009  3025     1 
 3011  3009  3025     1 
 3009  3011  3012     1 
 3009  3011  3021     1 
 3012  3011  3021     1 
 3011  3012  3013     1 
 3011  3012  3014     1 
 3013  3012  3014     1 
 3012  3014  3015     1 
 3012  3014  3016     1 
 3015  3014  3016     1 
 3014  3016  3017     1 
 3014  3016  3020     1 
 3017  3016  3020     1 
 3016  3017  3018     1 
 3016  3017  3019     1 
 3018  3017  3019     1 
 3016  3020  3021     1 
 3011  3021  3020     1 
 3011  3021  3022     1 
 3020  3021  3022     1 
 3006  3023  3024     1 
 3006  3023  3025     1 
 3006  3023  3028     1 
 3024  3023  3025     1 
 3024  3023  3028     1 
 3025  3023  3028     1 
 3009  3025  3023     1 
 3009  3025  3026     1 
 3009  3025  3027     1 
 3023  3025  3026     1 
 3023  3025  3027     1 
 3026  3025  3027     1 
 3023  3028  3029     1 
 3028  3029  3030     1 
 3028  3029  3031     1 
 3028  3029  3032     1 
 3030  3029  3031     1 
 3030  3029  3032     1 
 3031  3029  3032     1 
 3029  3032  3033     1 
 3032  3033  3034     1 
 3032  3033  3035     1 
 3032  3033  3036     1 
 3034  3033  3035     1 
 3034  3033  3036     1 
 3035  3033  3036     1 
 3033  3036  3037     1 
 3033  3036  3038     1 
 3033  3036  3055     1 
 3037  3036  3038     1 
 3037  3036  3055     1 
 3038  3036  3055     1 
 3036  3038  3039     1 
 3038  3039  3040     1 
 3038  3039  3041     1 
 3038  3039  3057     1 
 3040  3039  3041     1 
 3040  3039  3057     1 
 3041  3039  3057     1 
 3039  3041  3042     1 
 3039  3041  3053     1 
 3042  3041  3053     1 
 3041  3042  3043     1 
 3041  3042  3044     1 
 3043  3042  3044     1 
 3042  3044  3045     1 
 3042  3044  3049     1 
 3045  3044  3049     1 
 3044  3045  3046     1 
 3044  3045  3047     1 
 3044  3045  3048     1 
 3046  3045  3047     1 
 3046  3045  3048     1 
 3047  3045  3048     1 
 3044  3049  3050     1 
 3044  3049  3051     1 
 3050  3049  3051     1 
 3049  3051  3052     1 
 3049  3051  3053     1 
 3052  3051  3053     1 
 3041  3053  3051     1 
 3041  3053  3054     1 
 3051  3053  3054     1 
 3036  3055  3056     1 
 3036  3055  3057     1 
 3036  3055  3060     1 
 3056  3055  3057     1 
 3056  3055  3060     1 
 3057  3055  3060     1 
 3039  3057  3055     1 
 3039  3057  3058     1 
 3039  3057  3059     1 
 3055  3057  3058     1 
 3055  3057  3059     1 
 3058  3057  3059     1 
 3055  3060  3061     1 
 3060  3061  3062     1 
 3060  3061  3063     1 
 3060  3061  3064     1 
 3062  3061  3063     1 
 3062  3061  3064     1 
 3063  3061  3064     1 
 3061  3064  3065     1 
 3064  3065  3066     1 
 3064  3065  3067     1 
 3064  3065  3068     1 
 3066  3065  3067     1 
 3066  3065  3068     1 
 3067  3065  3068     1 
 3065  3068  3069     1 
 3065  3068  3070     1 
 3065  3068  3087     1 
 3069  3068  3070     1 
 3069  3068  3087     1 
 3070  3068  3087     1 
 3068  3070  3071     1 
 3070  3071  3072     1 
 3070  3071  3073     1 
 3070  3071  3089     1 
 3072  3071  3073     1 
 3072  3071  3089     1 
 3073  3071  3089     1 
 3071  3073  3074     1 
 3071  3073  3085     1 
 3074  3073  3085     1 
 3073  3074  3075     1 
 3073  3074  3076     1 
 3075  3074  3076     1 
 3074  3076  3077     1 
 3074  3076  3081     1 
 3077  3076  3081     1 
 3076  3077  3078     1 
 3076  3077  3079     1 
 3076  3077  3080     1 
 3078  3077  3079     1 
 3078  3077  3080     1 
 3079  3077  3080     1 
 3076  3081  3082     1 
 3076  3081  3083     1 
 3082  3081  3083     1 
 3081  3083  3084     1 
 3081  3083  3085     1 
 3084  3083  3085     1 
 3073  3085  3083     1 
 3073  3085  3086     1 
 3083  3085  3086     1 
 3068  3087  3088     1 
 3068  3087  3089     1 
 3068  3087  3092     1 
 3088  3087  3089     1 
 3088  3087  3092     1 
 3089  3087  3092     1 
 3071  3089  3087     1 
 3071  3089  3090     1 
 3071  3089  3091     1 
 3087  3089  3090     1 
 3087  3089  3091     1 
 3090  3089  3091     1 
 3087  3092  3093     1 
 3092  3093  3094     1 
 3092  3093  3095     1 
 3092  3093  3096     1 
 3094  3093  3095     1 
 3094  3093  3096     1 
 3095  3093  3096     1 
 3093  3096  3097     1 
 3096  3097  3098     1 
 3096  3097  3099     1 
 3096  3097  3100     1 
 3098  3097  3099     1 
 3098  3097  3100     1 
 3099  3097  3100     1 
 3097  3100  3101     1 
 3097  3100  3102     1 
 3097  3100  3117     1 
 3101  3100  3102     1 
 3101  3100  3117     1 
 3102  3100  3117     1 
 3100  3102  3103     1 
 3102  3103  3104     1 
 3102  3103  3105     1 
 3102  3103  3119     1 
 3104  3103  3105     1 
 3104  3103  3119     1 
 3105  3103  3119     1 
 3103  3105  3106     1 
 3103  3105  3115     1 
 3106  3105  3115     1 
 3105  3106  3107     1 
 3105  3106  3108     1 
 3107  3106  3108     1 
 3106  3108  3109     1 
 3106  3108  3110     1 
 3109  3108  3110     1 
 3108  3110  3111     1 
 3108  3110  3114     1 
 3111  3110  3114     1 
 3110  3111  3112     1 
 3110  3111  3113     1 
 3112  3111  3113     1 
 3110  3114  3115     1 
 3105  3115  3114     1 
 3105  3115  3116     1 
 3114  3115  3116     1 
 3100  3117  3118     1 
 3100  3117  3119     1 
 3100  3117  3122     1 
 3118  3117  3119     1 
 3118  3117  3122     1 
 3119  3117  3122     1 
 3103  3119  3117     1 
 3103  3119  3120     1 
 3103  3119  3121     1 
 3117  3119  3120     1 
 3117  3119  3121     1 
 3120  3119  3121     1 
 3117  3122  3123     1 
 3122  3123  3124     1 
 3122  3123  3125     1 
 3122  3123  3126     1 
 3124  3123  3125     1 
 3124  3123  3126     1 
 3125  3123  3126     1 
 3123  3126  3127     1 
 3126  3127  3128     1 
 3126  3127  3129     1 
 3126  3127  3130     1 
 3128  3127  3129     1 
 3128  3127  3130     1 
 3129  3127  3130     1 
 3127  3130  3131     1 
 3127  3130  3132     1 
 3127  3130  3149     1 
 3131  3130  3132     1 
 3131  3130  3149     1 
 3132  3130  3149     1 
 3130  3132  3133     1 
 3132  3133  3134     1 
 3132  3133  3135     1 
 3132  3133  3151     1 
 3134  3133  3135     1 
 3134  3133  3151     1 
 3135  3133  3151     1 
 3133  3135  3136     1 
 3133  3135  3148     1 
 3136  3135  3148     1 
 3135  3136  3137     1 
 3135  3136  3138     1 
 3137  3136  3138     1 
 3136  3138  3139     1 
 3138  3139  3140     1 
 3138  3139  3148     1 
 3140  3139  3148     1 
 3139  3140  3141     1 
 3139  3140  3144     1 
 3141  3140  3144     1 
 3140  3141  3142     1 
 3140  3141  3143     1 
 3142  3141  3143     1 
 3140  3144  3145     1 
 3144  3145  3146     1 
 3144  3145  3147     1 
 3146  3145  3147     1 
 3145  3147  3148     1 
 3135  3148  3139     1 
 3135  3148  3147     1 
 3139  3148  3147     1 
 3130  3149  3150     1 
 3130  3149  3151     1 
 3130  3149  3154     1 
 3150  3149  3151     1 
 3150  3149  3154     1 
 3151  3149  3154     1 
 3133  3151  3149     1 
 3133  3151  3152     1 
 3133  3151  3153     1 
 3149  3151  3152     1 
 3149  3151  3153     1 
 3152  3151  3153     1 
 3149  3154  3155     1 
 3154  3155  3156     1 
 3154  3155  3157     1 
 3154  3155  3158     1 
 3156  3155  3157     1 
 3156  3155  3158     1 
 3157  3155  3158     1 
 3155  3158  3159     1 
 3158  3159  3160     1 
 3158  3159  3161     1 
 3158  3159  3162     1 
 3160  3159  3161     1 
 3160  3159  3162     1 
 3161  3159  3162     1 
 3159  3162  3163     1 
 3159  3162  3164     1 
 3159  3162  3182     1 
 3163  3162  3164     1 
 3163  3162  3182     1 
 3164  3162  3182     1 
 3162  3164  3165     1 
 3164  3165  3166     1 
 3164  3165  3167     1 
 3164  3165  3184     1 
 3166  3165  3167     1 
 3166  3165  3184     1 
 3167  3165  3184     1 
 3165  3167  3168     1 
 3165  3167  3181     1 
 3168  3167  3181     1 
 3167  3168  3169     1 
 3167  3168  3170     1 
 3169  3168  3170     1 
 3168  3170  3171     1 
 3170  3171  3172     1 
 3170  3171  3181     1 
 3172  3171  3181     1 
 3171  3172  3173     1 
 3171  3172  3174     1 
 3173  3172  3174     1 
 3172  3174  3175     1 
 3172  3174  3176     1 
 3175  3174  3176     1 
 3174  3176  3177     1 
 3174  3176  3180     1 
 3177  3176  3180     1 
 3176  3177  3178     1 
 3176  3177  3179     1 
 3178  3177  3179     1 
 3176  3180  3181     1 
 3167  3181  3171     1 
 3167  3181  3180     1 
 3171  3181  3180     1 
 3162  3182  3183     1 
 3162  3182  3184     1 
 3162  3182  3187     1 
 3183  3182  3184     1 
 3183  3182  3187     1 
 3184  3182  3187     1 
 3165  3184  3182     1 
 3165  3184  3185     1 
 3165  3184  3186     1 
 3182  3184  3185     1 
 3182  3184  3186     1 
 3185  3184  3186     1 
 3182  3187  3188     1 
 3187  3188  3189     1 
 3187  3188  3190     1 
 3187  3188  3191     1 
 3189  3188  3190     1 
 3189  3188  3191     1 
 3190  3188  3191     1 
 3188  3191  3192     1 
 3191  3192  3193     1 
 3191  3192  3194     1 
 3191  3192  3195     1 
 3193  3192  3194     1 
 3193  3192  3195     1 
 3194  3192  3195     1 
 3192  3195  3196     1 
 3192  3195  3197     1 
 3192  3195  3214     1 
 3196  3195  3197     1 
 3196  3195  3214     1 
 3197  3195  3214     1 
 3195  3197  3198     1 
 3197  3198  3199     1 
 3197  3198  3200     1 
 3197  3198  3216     1 
 3199  3198  3200     1 
 3199  3198  3216     1 
 3200  3198  3216     1 
 3198  3200  3201     1 
 3198  3200  3212     1 
 3201  3200  3212     1 
 3200  3201  3202     1 
 3200  3201  3203     1 
 3202  3201  3203     1 
 3201  3203  3204     1 
 3201  3203  3208     1 
 3204  3203  3208     1 
 3203  3204  3205     1 
 3203  3204  3206     1 
 3203  3204  3207     1 
 3205  3204  3206     1 
 3205  3204  3207     1 
 3206  3204  3207     1 
 3203  3208  3209     1 
 3203  3208  3210     1 
 3209  3208  3210     1 
 3208  3210  3211     1 
 3208  3210  3212     1 
 3211  3210  3212     1 
 3200  3212  3210     1 
 3200  3212  3213     1 
 3210  3212  3213     1 
 3195  3214  3215     1 
 3195  3214  3216     1 
 3195  3214  3219     1 
 3215  3214  3216     1 
 3215  3214  3219     1 
 3216  3214  3219     1 
 3198  3216  3214     1 
 3198  3216  3217     1 
 3198  3216  3218     1 
 3214  3216  3217     1 
 3214  3216  3218     1 
 3217  3216  3218     1 
 3214  3219  3220     1 
 3219  3220  3221     1 
 3219  3220  3222     1 
 3219  3220  3223     1 
 3221  3220  3222     1 
 3221  3220  3223     1 
 3222  3220  3223     1 
 3220  3223  3224     1 
 3223  3224  3225     1 
 3223  3224  3226     1 
 3223  3224  3227     1 
 3225  3224  3226     1 
 3225  3224  3227     1 
 3226  3224  3227     1 
 3224  3227  3228     1 
 3224  3227  3229     1 
 3224  3227  3247     1 
 3228  3227  3229     1 
 3228  3227  3247     1 
 3229  3227  3247     1 
 3227  3229  3230     1 
 3229  3230  3231     1 
 3229  3230  3232     1 
 3229  3230  3249     1 
 3231  3230  3232     1 
 3231  3230  3249     1 
 3232  3230  3249     1 
 3230  3232  3233     1 
 3230  3232  3246     1 
 3233  3232  3246     1 
 3232  3233  3234     1 
 3232  3233  3235     1 
 3234  3233  3235     1 
 3233  3235  3236     1 
 3235  3236  3237     1 
 3235  3236  3246     1 
 3237  3236  3246     1 
 3236  3237  3238     1 
 3236  3237  3239     1 
 3238  3237  3239     1 
 3237  3239  3240     1 
 3237  3239  3241     1 
 3240  3239  3241     1 
 3239  3241  3242     1 
 3239  3241  3245     1 
 3242  3241  3245     1 
 3241  3242  3243     1 
 3241  3242  3244     1 
 3243  3242  3244     1 
 3241  3245  3246     1 
 3232  3246  3236     1 
 3232  3246  3245     1 
 3236  3246  3245     1 
 3227  3247  3248     1 
 3227  3247  3249     1 
 3227  3247  3252     1 
 3248  3247  3249     1 
 3248  3247  3252     1 
 3249  3247  3252     1 
 3230  3249  3247     1 
 3230  3249  3250     1 
 3230  3249  3251     1 
 3247  3249  3250     1 
 3247  3249  3251     1 
 3250  3249  3251     1 
 3247  3252  3253     1 
 3252  3253  3254     1 
 3252  3253  3255     1 
 3252  3253  3256     1 
 3254  3253  3255     1 
 3254  3253  3256     1 
 3255  3253  3256     1 
 3253  3256  3257     1 
 3256  3257  3258     1 
 3256  3257  3259     1 
 3256  3257  3260     1 
 3258  3257  3259     1 
 3258  3257  3260     1 
 3259  3257  3260     1 
 3257  3260  3261     1 
 3257  3260  3262     1 
 3257  3260  3277     1 
 3261  3260  3262     1 
 3261  3260  3277     1 
 3262  3260  3277     1 
 3260  3262  3263     1 
 3262  3263  3264     1 
 3262  3263  3265     1 
 3262  3263  3279     1 
 3264  3263  3265     1 
 3264  3263  3279     1 
 3265  3263  3279     1 
 3263  3265  3266     1 
 3263  3265  3275     1 
 3266  3265  3275     1 
 3265  3266  3267     1 
 3265  3266  3268     1 
 3267  3266  3268     1 
 3266  3268  3269     1 
 3266  3268  3270     1 
 3269  3268  3270     1 
 3268  3270  3271     1 
 3268  3270  3274     1 
 3271  3270  3274     1 
 3270  3271  3272     1 
 3270  3271  3273     1 
 3272  3271  3273     1 
 3270  3274  3275     1 
 3265  3275  3274     1 
 3265  3275  3276     1 
 3274  3275  3276     1 
 3260  3277  3278     1 
 3260  3277  3279     1 
 3260  3277  3282     1 
 3278  3277  3279     1 
 3278  3277  3282     1 
 3279  3277  3282     1 
 3263  3279  3277     1 
 3263  3279  3280     1 
 3263  3279  3281     1 
 3277  3279  3280     1 
 3277  3279  3281     1 
 3280  3279  3281     1 
 3277  3282  3283     1 
 3282  3283  3284     1 
 3282  3283  3285     1 
 3282  3283  3286     1 
 3284  3283  3285     1 
 3284  3283  3286     1 
 3285  3283  3286     1 
 3283  3286  3287     1 
 3286  3287  3288     1 
 3286  3287  3289     1 
 3286  3287  3290     1 
 3288  3287  3289     1 
 3288  3287  3290     1 
 3289  3287  3290     1 
 3287  3290  3291     1 
 3287  3290  3292     1 
 3287  3290  3307     1 
 3291  3290  3292     1 
 3291  3290  3307     1 
 3292  3290  3307     1 
 3290  3292  3293     1 
 3292  3293  3294     1 
 3292  3293  3295     1 
 3292  3293  3309     1 
 3294  3293  3295     1 
 3294  3293  3309     1 
 3295  3293  3309     1 
 3293  3295  3296     1 
 3293  3295  3305     1 
 3296  3295  3305     1 
 3295  3296  3297     1 
 3295  3296  3298     1 
 3297  3296  3298     1 
 3296  3298  3299     1 
 3296  3298  3300     1 
 3299  3298  3300     1 
 3298  3300  3301     1 
 3298  3300  3304     1 
 3301  3300  3304     1 
 3300  3301  3302     1 
 3300  3301  3303     1 
 3302  3301  3303     1 
 3300  3304  3305     1 
 3295  3305  3304     1 
 3295  3305  3306     1 
 3304  3305  3306     1 
 3290  3307  3308     1 
 3290  3307  3309     1 
 3290  3307  3312     1 
 3308  3307  3309     1 
 3308  3307  3312     1 
 3309  3307  3312     1 
 3293  3309  3307     1 
 3293  3309  3310     1 
 3293  3309  3311     1 
 3307  3309  3310     1 
 3307  3309  3311     1 
 3310  3309  3311     1 
 3307  3312  3313     1 
 3312  3313  3314     1 
 3312  3313  3315     1 
 3312  3313  3316     1 
 3314  3313  3315     1 
 3314  3313  3316     1 
 3315  3313  3316     1 
 3313  3316  3317     1 
 3316  3317  3318     1 
 3316  3317  3319     1 
 3316  3317  3320     1 
 3318  3317  3319     1 
 3318  3317  3320     1 
 3319  3317  3320     1 
 3317  3320  3321     1 
 3317  3320  3322     1 
 3317  3320  3339     1 
 3321  3320  3322     1 
 3321  3320  3339     1 
 3322  3320  3339     1 
 3320  3322  3323     1 
 3322  3323  3324     1 
 3322  3323  3325     1 
 3322  3323  3341     1 
 3324  3323  3325     1 
 3324  3323  3341     1 
 3325  3323  3341     1 
 3323  3325  3326     1 
 3323  3325  3337     1 
 3326  3325  3337     1 
 3325  3326  3327     1 
 3325  3326  3328     1 
 3327  3326  3328     1 
 3326  3328  3329     1 
 3326  3328  3333     1 
 3329  3328  3333     1 
 3328  3329  3330     1 
 3328  3329  3331     1 
 3328  3329  3332     1 
 3330  3329  3331     1 
 3330  3329  3332     1 
 3331  3329  3332     1 
 3328  3333  3334     1 
 3328  3333  3335     1 
 3334  3333  3335     1 
 3333  3335  3336     1 
 3333  3335  3337     1 
 3336  3335  3337     1 
 3325  3337  3335     1 
 3325  3337  3338     1 
 3335  3337  3338     1 
 3320  3339  3340     1 
 3320  3339  3341     1 
 3320  3339  3344     1 
 3340  3339  3341     1 
 3340  3339  3344     1 
 3341  3339  3344     1 
 3323  3341  3339     1 
 3323  3341  3342     1 
 3323  3341  3343     1 
 3339  3341  3342     1 
 3339  3341  3343     1 
 3342  3341  3343     1 
 3339  3344  3345     1 
 3344  3345  3346     1 
 3344  3345  3347     1 
 3344  3345  3348     1 
 3346  3345  3347     1 
 3346  3345  3348     1 
 3347  3345  3348     1 
 3345  3348  3349     1 
 3348  3349  3350     1 
 3348  3349  3351     1 
 3348  3349  3352     1 
 3350  3349  3351     1 
 3350  3349  3352     1 
 3351  3349  3352     1 
 3349  3352  3353     1 
 3349  3352  3354     1 
 3349  3352  3372     1 
 3353  3352  3354     1 
 3353  3352  3372     1 
 3354  3352  3372     1 
 3352  3354  3355     1 
 3354  3355  3356     1 
 3354  3355  3357     1 
 3354  3355  3374     1 
 3356  3355  3357     1 
 3356  3355  3374     1 
 3357  3355  3374     1 
 3355  3357  3358     1 
 3355  3357  3371     1 
 3358  3357  3371     1 
 3357  3358  3359     1 
 3357  3358  3360     1 
 3359  3358  3360     1 
 3358  3360  3361     1 
 3360  3361  3362     1 
 3360  3361  3371     1 
 3362  3361  3371     1 
 3361  3362  3363     1 
 3361  3362  3364     1 
 3363  3362  3364     1 
 3362  3364  3365     1 
 3362  3364  3366     1 
 3365  3364  3366     1 
 3364  3366  3367     1 
 3364  3366  3370     1 
 3367  3366  3370     1 
 3366  3367  3368     1 
 3366  3367  3369     1 
 3368  3367  3369     1 
 3366  3370  3371     1 
 3357  3371  3361     1 
 3357  3371  3370     1 
 3361  3371  3370     1 
 3352  3372  3373     1 
 3352  3372  3374     1 
 3352  3372  3377     1 
 3373  3372  3374     1 
 3373  3372  3377     1 
 3374  3372  3377     1 
 3355  3374  3372     1 
 3355  3374  3375     1 
 3355  3374  3376     1 
 3372  3374  3375     1 
 3372  3374  3376     1 
 3375  3374  3376     1 
 3372  3377  3378     1 
 3377  3378  3379     1 
 3377  3378  3380     1 
 3377  3378  3381     1 
 3379  3378  3380     1 
 3379  3378  3381     1 
 3380  3378  3381     1 
 3378  3381  3382     1 
 3381  3382  3383     1 
 3381  3382  3384     1 
 3381  3382  3385     1 
 3383  3382  3384     1 
 3383  3382  3385     1 
 3384  3382  3385     1 
 3382  3385  3386     1 
 3382  3385  3387     1 
 3382  3385  3402     1 
 3386  3385  3387     1 
 3386  3385  3402     1 
 3387  3385  3402     1 
 3385  3387  3388     1 
 3387  3388  3389     1 
 3387  3388  3390     1 
 3387  3388  3404     1 
 3389  3388  3390     1 
 3389  3388  3404     1 
 3390  3388  3404     1 
 3388  3390  3391     1 
 3388  3390  3400     1 
 3391  3390  3400     1 
 3390  3391  3392     1 
 3390  3391  3393     1 
 3392  3391  3393     1 
 3391  3393  3394     1 
 3391  3393  3395     1 
 3394  3393  3395     1 
 3393  3395  3396     1 
 3393  3395  3399     1 
 3396  3395  3399     1 
 3395  3396  3397     1 
 3395  3396  3398     1 
 3397  3396  3398     1 
 3395  3399  3400     1 
 3390  3400  3399     1 
 3390  3400  3401     1 
 3399  3400  3401     1 
 3385  3402  3403     1 
 3385  3402  3404     1 
 3385  3402  3407     1 
 3403  3402  3404     1 
 3403  3402  3407     1 
 3404  3402  3407     1 
 3388  3404  3402     1 
 3388  3404  3405     1 
 3388  3404  3406     1 
 3402  3404  3405     1 
 3402  3404  3406     1 
 3405  3404  3406     1 
 3402  3407  3408     1 
 3407  3408  3409     1 
 3407  3408  3410     1 
 3407  3408  3411     1 
 3409  3408  3410     1 
 3409  3408  3411     1 
 3410  3408  3411     1 
 3408  3411  3412     1 
 3411  3412  3413     1 
 3411  3412  3414     1 
 3411  3412  3415     1 
 3413  3412  3414     1 
 3413  3412  3415     1 
 3414  3412  3415     1 
 3412  3415  3416     1 
 3412  3415  3417     1 
 3412  3415  3435     1 
 3416  3415  3417     1 
 3416  3415  3435     1 
 3417  3415  3435     1 
 3415  3417  3418     1 
 3417  3418  3419     1 
 3417  3418  3420     1 
 3417  3418  3437     1 
 3419  3418  3420     1 
 3419  3418  3437     1 
 3420  3418  3437     1 
 3418  3420  3421     1 
 3418  3420  3434     1 
 3421  3420  3434     1 
 3420  3421  3422     1 
 3420  3421  3423     1 
 3422  3421  3423     1 
 3421  3423  3424     1 
 3423  3424  3425     1 
 3423  3424  3434     1 
 3425  3424  3434     1 
 3424  3425  3426     1 
 3424  3425  3427     1 
 3426  3425  3427     1 
 3425  3427  3428     1 
 3425  3427  3429     1 
 3428  3427  3429     1 
 3427  3429  3430     1 
 3427  3429  3433     1 
 3430  3429  3433     1 
 3429  3430  3431     1 
 3429  3430  3432     1 
 3431  3430  3432     1 
 3429  3433  3434     1 
 3420  3434  3424     1 
 3420  3434  3433     1 
 3424  3434  3433     1 
 3415  3435  3436     1 
 3415  3435  3437     1 
 3415  3435  3440     1 
 3436  3435  3437     1 
 3436  3435  3440     1 
 3437  3435  3440     1 
 3418  3437  3435     1 
 3418  3437  3438     1 
 3418  3437  3439     1 
 3435  3437  3438     1 
 3435  3437  3439     1 
 3438  3437  3439     1 
 3435  3440  3441     1 
 3440  3441  3442     1 
 3440  3441  3443     1 
 3440  3441  3444     1 
 3442  3441  3443     1 
 3442  3441  3444     1 
 3443  3441  3444     1 
 3441  3444  3445     1 
 3444  3445  3446     1 
 3444  3445  3447     1 
 3444  3445  3448     1 
 3446  3445  3447     1 
 3446  3445  3448     1 
 3447  3445  3448     1 
 3445  3448  3449     1 
 3445  3448  3450     1 
 3445  3448  3465     1 
 3449  3448  3450     1 
 3449  3448  3465     1 
 3450  3448  3465     1 
 3448  3450  3451     1 
 3450  3451  3452     1 
 3450  3451  3453     1 
 3450  3451  3467     1 
 3452  3451  3453     1 
 3452  3451  3467     1 
 3453  3451  3467     1 
 3451  3453  3454     1 
 3451  3453  3463     1 
 3454  3453  3463     1 
 3453  3454  3455     1 
 3453  3454  3456     1 
 3455  3454  3456     1 
 3454  3456  3457     1 
 3454  3456  3458     1 
 3457  3456  3458     1 
 3456  3458  3459     1 
 3456  3458  3462     1 
 3459  3458  3462     1 
 3458  3459  3460     1 
 3458  3459  3461     1 
 3460  3459  3461     1 
 3458  3462  3463     1 
 3453  3463  3462     1 
 3453  3463  3464     1 
 3462  3463  3464     1 
 3448  3465  3466     1 
 3448  3465  3467     1 
 3448  3465  3470     1 
 3466  3465  3467     1 
 3466  3465  3470     1 
 3467  3465  3470     1 
 3451  3467  3465     1 
 3451  3467  3468     1 
 3451  3467  3469     1 
 3465  3467  3468     1 
 3465  3467  3469     1 
 3468  3467  3469     1 
 3465  3470  3471     1 
 3470  3471  3472     1 
 3470  3471  3473     1 
 3470  3471  3474     1 
 3472  3471  3473     1 
 3472  3471  3474     1 
 3473  3471  3474     1 
 3471  3474  3475     1 
 3474  3475  3476     1 
 3474  3475  3477     1 
 3474  3475  3478     1 
 3476  3475  3477     1 
 3476  3475  3478     1 
 3477  3475  3478     1 
 3475  3478  3479     1 
 3475  3478  3480     1 
 3475  3478  3495     1 
 3479  3478  3480     1 
 3479  3478  3495     1 
 3480  3478  3495     1 
 3478  3480  3481     1 
 3480  3481  3482     1 
 3480  3481  3483     1 
 3480  3481  3497     1 
 3482  3481  3483     1 
 3482  3481  3497     1 
 3483  3481  3497     1 
 3481  3483  3484     1 
 3481  3483  3493     1 
 3484  3483  3493     1 
 3483  3484  3485     1 
 3483  3484  3486     1 
 3485  3484  3486     1 
 3484  3486  3487     1 
 3484  3486  3488     1 
 3487  3486  3488     1 
 3486  3488  3489     1 
 3486  3488  3492     1 
 3489  3488  3492     1 
 3488  3489  3490     1 
 3488  3489  3491     1 
 3490  3489  3491     1 
 3488  3492  3493     1 
 3483  3493  3492     1 
 3483  3493  3494     1 
 3492  3493  3494     1 
 3478  3495  3496     1 
 3478  3495  3497     1 
 3478  3495  3500     1 
 3496  3495  3497     1 
 3496  3495  3500     1 
 3497  3495  3500     1 
 3481  3497  3495     1 
 3481  3497  3498     1 
 3481  3497  3499     1 
 3495  3497  3498     1 
 3495  3497  3499     1 
 3498  3497  3499     1 
 3495  3500  3501     1 
 3500  3501  3502     1 
 3500  3501  3503     1 
 3500  3501  3504     1 
 3502  3501  3503     1 
 3502  3501  3504     1 
 3503  3501  3504     1 
 3501  3504  3505     1 
 3504  3505  3506     1 
 3504  3505  3507     1 
 3504  3505  3508     1 
 3506  3505  3507     1 
 3506  3505  3508     1 
 3507  3505  3508     1 
 3505  3508  3509     1 
 3505  3508  3510     1 
 3505  3508  3528     1 
 3509  3508  3510     1 
 3509  3508  3528     1 
 3510  3508  3528     1 
 3508  3510  3511     1 
 3510  3511  3512     1 
 3510  3511  3513     1 
 3510  3511  3530     1 
 3512  3511  3513     1 
 3512  3511  3530     1 
 3513  3511  3530     1 
 3511  3513  3514     1 
 3511  3513  3527     1 
 3514  3513  3527     1 
 3513  3514  3515     1 
 3513  3514  3516     1 
 3515  3514  3516     1 
 3514  3516  3517     1 
 3516  3517  3518     1 
 3516  3517  3527     1 
 3518  3517  3527     1 
 3517  3518  3519     1 
 3517  3518  3520     1 
 3519  3518  3520     1 
 3518  3520  3521     1 
 3518  3520  3522     1 
 3521  3520  3522     1 
 3520  3522  3523     1 
 3520  3522  3526     1 
 3523  3522  3526     1 
 3522  3523  3524     1 
 3522  3523  3525     1 
 3524  3523  3525     1 
 3522  3526  3527     1 
 3513  3527  3517     1 
 3513  3527  3526     1 
 3517  3527  3526     1 
 3508  3528  3529     1 
 3508  3528  3530     1 
 3508  3528  3533     1 
 3529  3528  3530     1 
 3529  3528  3533     1 
 3530  3528  3533     1 
 3511  3530  3528     1 
 3511  3530  3531     1 
 3511  3530  3532     1 
 3528  3530  3531     1 
 3528  3530  3532     1 
 3531  3530  3532     1 
 3528  3533  3534     1 
 3533  3534  3535     1 
 3533  3534  3536     1 
 3533  3534  3537     1 
 3535  3534  3536     1 
 3535  3534  3537     1 
 3536  3534  3537     1 
 3534  3537  3538     1 
 3537  3538  3539     1 
 3537  3538  3540     1 
 3537  3538  3541     1 
 3539  3538  3540     1 
 3539  3538  3541     1 
 3540  3538  3541     1 
 3538  3541  3542     1 
 3538  3541  3543     1 
 3538  3541  3558     1 
 3542  3541  3543     1 
 3542  3541  3558     1 
 3543  3541  3558     1 
 3541  3543  3544     1 
 3543  3544  3545     1 
 3543  3544  3546     1 
 3543  3544  3560     1 
 3545  3544  3546     1 
 3545  3544  3560     1 
 3546  3544  3560     1 
 3544  3546  3547     1 
 3544  3546  3556     1 
 3547  3546  3556     1 
 3546  3547  3548     1 
 3546  3547  3549     1 
 3548  3547  3549     1 
 3547  3549  3550     1 
 3547  3549  3551     1 
 3550  3549  3551     1 
 3549  3551  3552     1 
 3549  3551  3555     1 
 3552  3551  3555     1 
 3551  3552  3553     1 
 3551  3552  3554     1 
 3553  3552  3554     1 
 3551  3555  3556     1 
 3546  3556  3555     1 
 3546  3556  3557     1 
 3555  3556  3557     1 
 3541  3558  3559     1 
 3541  3558  3560     1 
 3541  3558  3563     1 
 3559  3558  3560     1 
 3559  3558  3563     1 
 3560  3558  3563     1 
 3544  3560  3558     1 
 3544  3560  3561     1 
 3544  3560  3562     1 
 3558  3560  3561     1 
 3558  3560  3562     1 
 3561  3560  3562     1 
 3558  3563  3564     1 
 3563  3564  3565     1 
 3563  3564  3566     1 
 3563  3564  3567     1 
 3565  3564  3566     1 
 3565  3564  3567     1 
 3566  3564  3567     1 
 3564  3567  3568     1 
 3567  3568  3569     1 
 3567  3568  3570     1 
 3567  3568  3571     1 
 3569  3568  3570     1 
 3569  3568  3571     1 
 3570  3568  3571     1 
 3568  3571  3572     1 
 3568  3571  3573     1 
 3568  3571  3591     1 
 3572  3571  3573     1 
 3572  3571  3591     1 
 3573  3571  3591     1 
 3571  3573  3574     1 
 3573  3574  3575     1 
 3573  3574  3576     1 
 3573  3574  3593     1 
 3575  3574  3576     1 
 3575  3574  3593     1 
 3576  3574  3593     1 
 3574  3576  3577     1 
 3574  3576  3590     1 
 3577  3576  3590     1 
 3576  3577  3578     1 
 3576  3577  3579     1 
 3578  3577  3579     1 
 3577  3579  3580     1 
 3579  3580  3581     1 
 3579  3580  3590     1 
 3581  3580  3590     1 
 3580  3581  3582     1 
 3580  3581  3583     1 
 3582  3581  3583     1 
 3581  3583  3584     1 
 3581  3583  3585     1 
 3584  3583  3585     1 
 3583  3585  3586     1 
 3583  3585  3589     1 
 3586  3585  3589     1 
 3585  3586  3587     1 
 3585  3586  3588     1 
 3587  3586  3588     1 
 3585  3589  3590     1 
 3576  3590  3580     1 
 3576  3590  3589     1 
 3580  3590  3589     1 
 3571  3591  3592     1 
 3571  3591  3593     1 
 3571  3591  3596     1 
 3592  3591  3593     1 
 3592  3591  3596     1 
 3593  3591  3596     1 
 3574  3593  3591     1 
 3574  3593  3594     1 
 3574  3593  3595     1 
 3591  3593  3594     1 
 3591  3593  3595     1 
 3594  3593  3595     1 
 3591  3596  3597     1 
 3596  3597  3598     1 
 3596  3597  3599     1 
 3596  3597  3600     1 
 3598  3597  3599     1 
 3598  3597  3600     1 
 3599  3597  3600     1 
 3597  3600  3601     1 
 3600  3601  3602     1 
 3600  3601  3603     1 
 3600  3601  3604     1 
 3602  3601  3603     1 
 3602  3601  3604     1 
 3603  3601  3604     1 
 3601  3604  3605     1 
 3601  3604  3606     1 
 3601  3604  3621     1 
 3605  3604  3606     1 
 3605  3604  3621     1 
 3606  3604  3621     1 
 3604  3606  3607     1 
 3606  3607  3608     1 
 3606  3607  3609     1 
 3606  3607  3623     1 
 3608  3607  3609     1 
 3608  3607  3623     1 
 3609  3607  3623     1 
 3607  3609  3610     1 
 3607  3609  3619     1 
 3610  3609  3619     1 
 3609  3610  3611     1 
 3609  3610  3612     1 
 3611  3610  3612     1 
 3610  3612  3613     1 
 3610  3612  3614     1 
 3613  3612  3614     1 
 3612  3614  3615     1 
 3612  3614  3618     1 
 3615  3614  3618     1 
 3614  3615  3616     1 
 3614  3615  3617     1 
 3616  3615  3617     1 
 3614  3618  3619     1 
 3609  3619  3618     1 
 3609  3619  3620     1 
 3618  3619  3620     1 
 3604  3621  3622     1 
 3604  3621  3623     1 
 3604  3621  3626     1 
 3622  3621  3623     1 
 3622  3621  3626     1 
 3623  3621  3626     1 
 3607  3623  3621     1 
 3607  3623  3624     1 
 3607  3623  3625     1 
 3621  3623  3624     1 
 3621  3623  3625     1 
 3624  3623  3625     1 
 3621  3626  3627     1 
 3626  3627  3628     1 
 3626  3627  3629     1 
 3626  3627  3630     1 
 3628  3627  3629     1 
 3628  3627  3630     1 
 3629  3627  3630     1 
 3627  3630  3631     1 
 3630  3631  3632     1 
 3630  3631  3633     1 
 3630  3631  3634     1 
 3632  3631  3633     1 
 3632  3631  3634     1 
 3633  3631  3634     1 
 3631  3634  3635     1 
 3631  3634  3636     1 
 3631  3634  3653     1 
 3635  3634  3636     1 
 3635  3634  3653     1 
 3636  3634  3653     1 
 3634  3636  3637     1 
 3636  3637  3638     1 
 3636  3637  3639     1 
 3636  3637  3655     1 
 3638  3637  3639     1 
 3638  3637  3655     1 
 3639  3637  3655     1 
 3637  3639  3640     1 
 3637  3639  3651     1 
 3640  3639  3651     1 
 3639  3640  3641     1 
 3639  3640  3642     1 
 3641  3640  3642     1 
 3640  3642  3643     1 
 3640  3642  3647     1 
 3643  3642  3647     1 
 3642  3643  3644     1 
 3642  3643  3645     1 
 3642  3643  3646     1 
 3644  3643  3645     1 
 3644  3643  3646     1 
 3645  3643  3646     1 
 3642  3647  3648     1 
 3642  3647  3649     1 
 3648  3647  3649     1 
 3647  3649  3650     1 
 3647  3649  3651     1 
 3650  3649  3651     1 
 3639  3651  3649     1 
 3639  3651  3652     1 
 3649  3651  3652     1 
 3634  3653  3654     1 
 3634  3653  3655     1 
 3634  3653  3658     1 
 3654  3653  3655     1 
 3654  3653  3658     1 
 3655  3653  3658     1 
 3637  3655  3653     1 
 3637  3655  3656     1 
 3637  3655  3657     1 
 3653  3655  3656     1 
 3653  3655  3657     1 
 3656  3655  3657     1 
 3653  3658  3659     1 
 3658  3659  3660     1 
 3658  3659  3661     1 
 3658  3659  3662     1 
 3660  3659  3661     1 
 3660  3659  3662     1 
 3661  3659  3662     1 
 3659  3662  3663     1 
 3662  3663  3664     1 
 3662  3663  3665     1 
 3662  3663  3666     1 
 3664  3663  3665     1 
 3664  3663  3666     1 
 3665  3663  3666     1 
 3663  3666  3667     1 
 3663  3666  3668     1 
 3663  3666  3683     1 
 3667  3666  3668     1 
 3667  3666  3683     1 
 3668  3666  3683     1 
 3666  3668  3669     1 
 3668  3669  3670     1 
 3668  3669  3671     1 
 3668  3669  3685     1 
 3670  3669  3671     1 
 3670  3669  3685     1 
 3671  3669  3685     1 
 3669  3671  3672     1 
 3669  3671  3681     1 
 3672  3671  3681     1 
 3671  3672  3673     1 
 3671  3672  3674     1 
 3673  3672  3674     1 
 3672  3674  3675     1 
 3672  3674  3676     1 
 3675  3674  3676     1 
 3674  3676  3677     1 
 3674  3676  3680     1 
 3677  3676  3680     1 
 3676  3677  3678     1 
 3676  3677  3679     1 
 3678  3677  3679     1 
 3676  3680  3681     1 
 3671  3681  3680     1 
 3671  3681  3682     1 
 3680  3681  3682     1 
 3666  3683  3684     1 
 3666  3683  3685     1 
 3666  3683  3688     1 
 3684  3683  3685     1 
 3684  3683  3688     1 
 3685  3683  3688     1 
 3669  3685  3683     1 
 3669  3685  3686     1 
 3669  3685  3687     1 
 3683  3685  3686     1 
 3683  3685  3687     1 
 3686  3685  3687     1 
 3683  3688  3689     1 
 3688  3689  3690     1 
 3688  3689  3691     1 
 3688  3689  3692     1 
 3690  3689  3691     1 
 3690  3689  3692     1 
 3691  3689  3692     1 
 3689  3692  3693     1 
 3692  3693  3694     1 
 3692  3693  3695     1 
 3692  3693  3696     1 
 3694  3693  3695     1 
 3694  3693  3696     1 
 3695  3693  3696     1 
 3693  3696  3697     1 
 3693  3696  3698     1 
 3693  3696  3716     1 
 3697  3696  3698     1 
 3697  3696  3716     1 
 3698  3696  3716     1 
 3696  3698  3699     1 
 3698  3699  3700     1 
 3698  3699  3701     1 
 3698  3699  3718     1 
 3700  3699  3701     1 
 3700  3699  3718     1 
 3701  3699  3718     1 
 3699  3701  3702     1 
 3699  3701  3715     1 
 3702  3701  3715     1 
 3701  3702  3703     1 
 3701  3702  3704     1 
 3703  3702  3704     1 
 3702  3704  3705     1 
 3704  3705  3706     1 
 3704  3705  3715     1 
 3706  3705  3715     1 
 3705  3706  3707     1 
 3705  3706  3708     1 
 3707  3706  3708     1 
 3706  3708  3709     1 
 3706  3708  3710     1 
 3709  3708  3710     1 
 3708  3710  3711     1 
 3708  3710  3714     1 
 3711  3710  3714     1 
 3710  3711  3712     1 
 3710  3711  3713     1 
 3712  3711  3713     1 
 3710  3714  3715     1 
 3701  3715  3705     1 
 3701  3715  3714     1 
 3705  3715  3714     1 
 3696  3716  3717     1 
 3696  3716  3718     1 
 3696  3716  3721     1 
 3717  3716  3718     1 
 3717  3716  3721     1 
 3718  3716  3721     1 
 3699  3718  3716     1 
 3699  3718  3719     1 
 3699  3718  3720     1 
 3716  3718  3719     1 
 3716  3718  3720     1 
 3719  3718  3720     1 
 3716  3721  3722     1 
 3721  3722  3723     1 
 3721  3722  3724     1 
 3721  3722  3725     1 
 3723  3722  3724     1 
 3723  3722  3725     1 
 3724  3722  3725     1 
 3722  3725  3726     1 
 3725  3726  3727     1 
 3725  3726  3728     1 
 3725  3726  3729     1 
 3727  3726  3728     1 
 3727  3726  3729     1 
 3728  3726  3729     1 
 3726  3729  3730     1 
 3726  3729  3731     1 
 3726  3729  3746     1 
 3730  3729  3731     1 
 3730  3729  3746     1 
 3731  3729  3746     1 
 3729  3731  3732     1 
 3731  3732  3733     1 
 3731  3732  3734     1 
 3731  3732  3748     1 
 3733  3732  3734     1 
 3733  3732  3748     1 
 3734  3732  3748     1 
 3732  3734  3735     1 
 3732  3734  3744     1 
 3735  3734  3744     1 
 3734  3735  3736     1 
 3734  3735  3737     1 
 3736  3735  3737     1 
 3735  3737  3738     1 
 3735  3737  3739     1 
 3738  3737  3739     1 
 3737  3739  3740     1 
 3737  3739  3743     1 
 3740  3739  3743     1 
 3739  3740  3741     1 
 3739  3740  3742     1 
 3741  3740  3742     1 
 3739  3743  3744     1 
 3734  3744  3743     1 
 3734  3744  3745     1 
 3743  3744  3745     1 
 3729  3746  3747     1 
 3729  3746  3748     1 
 3729  3746  3751     1 
 3747  3746  3748     1 
 3747  3746  3751     1 
 3748  3746  3751     1 
 3732  3748  3746     1 
 3732  3748  3749     1 
 3732  3748  3750     1 
 3746  3748  3749     1 
 3746  3748  3750     1 
 3749  3748  3750     1 
 3746  3751  3752     1 
 3751  3752  3753     1 
 3751  3752  3754     1 
 3751  3752  3755     1 
 3753  3752  3754     1 
 3753  3752  3755     1 
 3754  3752  3755     1 
 3752  3755  3756     1 
 3755  3756  3757     1 
 3755  3756  3758     1 
 3755  3756  3759     1 
 3757  3756  3758     1 
 3757  3756  3759     1 
 3758  3756  3759     1 
 3756  3759  3760     1 
 3756  3759  3761     1 
 3756  3759  3778     1 
 3760  3759  3761     1 
 3760  3759  3778     1 
 3761  3759  3778     1 
 3759  3761  3762     1 
 3761  3762  3763     1 
 3761  3762  3764     1 
 3761  3762  3780     1 
 3763  3762  3764     1 
 3763  3762  3780     1 
 3764  3762  3780     1 
 3762  3764  3765     1 
 3762  3764  3776     1 
 3765  3764  3776     1 
 3764  3765  3766     1 
 3764  3765  3767     1 
 3766  3765  3767     1 
 3765  3767  3768     1 
 3765  3767  3772     1 
 3768  3767  3772     1 
 3767  3768  3769     1 
 3767  3768  3770     1 
 3767  3768  3771     1 
 3769  3768  3770     1 
 3769  3768  3771     1 
 3770  3768  3771     1 
 3767  3772  3773     1 
 3767  3772  3774     1 
 3773  3772  3774     1 
 3772  3774  3775     1 
 3772  3774  3776     1 
 3775  3774  3776     1 
 3764  3776  3774     1 
 3764  3776  3777     1 
 3774  3776  3777     1 
 3759  3778  3779     1 
 3759  3778  3780     1 
 3759  3778  3783     1 
 3779  3778  3780     1 
 3779  3778  3783     1 
 3780  3778  3783     1 
 3762  3780  3778     1 
 3762  3780  3781     1 
 3762  3780  3782     1 
 3778  3780  3781     1 
 3778  3780  3782     1 
 3781  3780  3782     1 
 3778  3783  3784     1 
 3783  3784  3785     1 
 3783  3784  3786     1 
 3783  3784  3787     1 
 3785  3784  3786     1 
 3785  3784  3787     1 
 3786  3784  3787     1 
 3784  3787  3788     1 
 3787  3788  3789     1 
 3787  3788  3790     1 
 3787  3788  3791     1 
 3789  3788  3790     1 
 3789  3788  3791     1 
 3790  3788  3791     1 
 3788  3791  3792     1 
 3788  3791  3793     1 
 3788  3791  3808     1 
 3792  3791  3793     1 
 3792  3791  3808     1 
 3793  3791  3808     1 
 3791  3793  3794     1 
 3793  3794  3795     1 
 3793  3794  3796     1 
 3793  3794  3810     1 
 3795  3794  3796     1 
 3795  3794  3810     1 
 3796  3794  3810     1 
 3794  3796  3797     1 
 3794  3796  3806     1 
 3797  3796  3806     1 
 3796  3797  3798     1 
 3796  3797  3799     1 
 3798  3797  3799     1 
 3797  3799  3800     1 
 3797  3799  3801     1 
 3800  3799  3801     1 
 3799  3801  3802     1 
 3799  3801  3805     1 
 3802  3801  3805     1 
 3801  3802  3803     1 
 3801  3802  3804     1 
 3803  3802  3804     1 
 3801  3805  3806     1 
 3796  3806  3805     1 
 3796  3806  3807     1 
 3805  3806  3807     1 
 3791  3808  3809     1 
 3791  3808  3810     1 
 3791  3808  3813     1 
 3809  3808  3810     1 
 3809  3808  3813     1 
 3810  3808  3813     1 
 3794  3810  3808     1 
 3794  3810  3811     1 
 3794  3810  3812     1 
 3808  3810  3811     1 
 3808  3810  3812     1 
 3811  3810  3812     1 
 3808  3813  3814     1 
 3813  3814  3815     1 
 3813  3814  3816     1 
 3813  3814  3817     1 
 3815  3814  3816     1 
 3815  3814  3817     1 
 3816  3814  3817     1 
 3814  3817  3818     1 
 3817  3818  3819     1 
 3817  3818  3820     1 
 3817  3818  3821     1 
 3819  3818  3820     1 
 3819  3818  3821     1 
 3820  3818  3821     1 
 3818  3821  3822     1 
 3818  3821  3823     1 
 3818  3821  3838     1 
 3822  3821  3823     1 
 3822  3821  3838     1 
 3823  3821  3838     1 
 3821  3823  3824     1 
 3823  3824  3825     1 
 3823  3824  3826     1 
 3823  3824  3840     1 
 3825  3824  3826     1 
 3825  3824  3840     1 
 3826  3824  3840     1 
 3824  3826  3827     1 
 3824  3826  3836     1 
 3827  3826  3836     1 
 3826  3827  3828     1 
 3826  3827  3829     1 
 3828  3827  3829     1 
 3827  3829  3830     1 
 3827  3829  3831     1 
 3830  3829  3831     1 
 3829  3831  3832     1 
 3829  3831  3835     1 
 3832  3831  3835     1 
 3831  3832  3833     1 
 3831  3832  3834     1 
 3833  3832  3834     1 
 3831  3835  3836     1 
 3826  3836  3835     1 
 3826  3836  3837     1 
 3835  3836  3837     1 
 3821  3838  3839     1 
 3821  3838  3840     1 
 3821  3838  3843     1 
 3839  3838  3840     1 
 3839  3838  3843     1 
 3840  3838  3843     1 
 3824  3840  3838     1 
 3824  3840  3841     1 
 3824  3840  3842     1 
 3838  3840  3841     1 
 3838  3840  3842     1 
 3841  3840  3842     1 
 3838  3843  3844     1 
 3843  3844  3845     1 
 3843  3844  3846     1 
 3843  3844  3847     1 
 3845  3844  3846     1 
 3845  3844  3847     1 
 3846  3844  3847     1 
 3844  3847  3848     1 
 3847  3848  3849     1 
 3847  3848  3850     1 
 3847  3848  3851     1 
 3849  3848  3850     1 
 3849  3848  3851     1 
 3850  3848  3851     1 
 3848  3851  3852     1 
 3848  3851  3853     1 
 3848  3851  3868     1 
 3852  3851  3853     1 
 3852  3851  3868     1 
 3853  3851  3868     1 
 3851  3853  3854     1 
 3853  3854  3855     1 
 3853  3854  3856     1 
 3853  3854  3870     1 
 3855  3854  3856     1 
 3855  3854  3870     1 
 3856  3854  3870     1 
 3854  3856  3857     1 
 3854  3856  3866     1 
 3857  3856  3866     1 
 3856  3857  3858     1 
 3856  3857  3859     1 
 3858  3857  3859     1 
 3857  3859  3860     1 
 3857  3859  3861     1 
 3860  3859  3861     1 
 3859  3861  3862     1 
 3859  3861  3865     1 
 3862  3861  3865     1 
 3861  3862  3863     1 
 3861  3862  3864     1 
 3863  3862  3864     1 
 3861  3865  3866     1 
 3856  3866  3865     1 
 3856  3866  3867     1 
 3865  3866  3867     1 
 3851  3868  3869     1 
 3851  3868  3870     1 
 3851  3868  3873     1 
 3869  3868  3870     1 
 3869  3868  3873     1 
 3870  3868  3873     1 
 3854  3870  3868     1 
 3854  3870  3871     1 
 3854  3870  3872     1 
 3868  3870  3871     1 
 3868  3870  3872     1 
 3871  3870  3872     1 
 3868  3873  3874     1 
 3873  3874  3875     1 
 3873  3874  3876     1 
 3873  3874  3877     1 
 3875  3874  3876     1 
 3875  3874  3877     1 
 3876  3874  3877     1 
 3874  3877  3878     1 
 3877  3878  3879     1 
 3877  3878  3880     1 
 3877  3878  3881     1 
 3879  3878  3880     1 
 3879  3878  3881     1 
 3880  3878  3881     1 
 3878  3881  3882     1 
 3878  3881  3883     1 
 3878  3881  3900     1 
 3882  3881  3883     1 
 3882  3881  3900     1 
 3883  3881  3900     1 
 3881  3883  3884     1 
 3883  3884  3885     1 
 3883  3884  3886     1 
 3883  3884  3902     1 
 3885  3884  3886     1 
 3885  3884  3902     1 
 3886  3884  3902     1 
 3884  3886  3887     1 
 3884  3886  3899     1 
 3887  3886  3899     1 
 3886  3887  3888     1 
 3886  3887  3889     1 
 3888  3887  3889     1 
 3887  3889  3890     1 
 3889  3890  3891     1 
 3889  3890  3899     1 
 3891  3890  3899     1 
 3890  3891  3892     1 
 3890  3891  3895     1 
 3892  3891  3895     1 
 3891  3892  3893     1 
 3891  3892  3894     1 
 3893  3892  3894     1 
 3891  3895  3896     1 
 3895  3896  3897     1 
 3895  3896  3898     1 
 3897  3896  3898     1 
 3896  3898  3899     1 
 3886  3899  3890     1 
 3886  3899  3898     1 
 3890  3899  3898     1 
 3881  3900  3901     1 
 3881  3900  3902     1 
 3881  3900  3905     1 
 3901  3900  3902     1 
 3901  3900  3905     1 
 3902  3900  3905     1 
 3884  3902  3900     1 
 3884  3902  3903     1 
 3884  3902  3904     1 
 3900  3902  3903     1 
 3900  3902  3904     1 
 3903  3902  3904     1 
 3900  3905  3906     1 
 3905  3906  3907     1 
 3905  3906  3908     1 
 3905  3906  3909     1 
 3907  3906  3908     1 
 3907  3906  3909     1 
 3908  3906  3909     1 
 3906  3909  3910     1 
 3909  3910  3911     1 
 3909  3910  3912     1 
 3909  3910  3913     1 
 3911  3910  3912     1 
 3911  3910  3913     1 
 3912  3910  3913     1 
 3910  3913  3914     1 
 3910  3913  3915     1 
 3910  3913  3933     1 
 3914  3913  3915     1 
 3914  3913  3933     1 
 3915  3913  3933     1 
 3913  3915  3916     1 
 3915  3916  3917     1 
 3915  3916  3918     1 
 3915  3916  3935     1 
 3917  3916  3918     1 
 3917  3916  3935     1 
 3918  3916  3935     1 
 3916  3918  3919     1 
 3916  3918  3932     1 
 3919  3918  3932     1 
 3918  3919  3920     1 
 3918  3919  3921     1 
 3920  3919  3921     1 
 3919  3921  3922     1 
 3921  3922  3923     1 
 3921  3922  3932     1 
 3923  3922  3932     1 
 3922  3923  3924     1 
 3922  3923  3925     1 
 3924  3923  3925     1 
 3923  3925  3926     1 
 3923  3925  3927     1 
 3926  3925  3927     1 
 3925  3927  3928     1 
 3925  3927  3931     1 
 3928  3927  3931     1 
 3927  3928  3929     1 
 3927  3928  3930     1 
 3929  3928  3930     1 
 3927  3931  3932     1 
 3918  3932  3922     1 
 3918  3932  3931     1 
 3922  3932  3931     1 
 3913  3933  3934     1 
 3913  3933  3935     1 
 3913  3933  3938     1 
 3934  3933  3935     1 
 3934  3933  3938     1 
 3935  3933  3938     1 
 3916  3935  3933     1 
 3916  3935  3936     1 
 3916  3935  3937     1 
 3933  3935  3936     1 
 3933  3935  3937     1 
 3936  3935  3937     1 
 3933  3938  3939     1 
 3938  3939  3940     1 
 3938  3939  3941     1 
 3938  3939  3942     1 
 3940  3939  3941     1 
 3940  3939  3942     1 
 3941  3939  3942     1 
 3939  3942  3943     1 
 3942  3943  3944     1 
 3942  3943  3945     1 
 3942  3943  3946     1 
 3944  3943  3945     1 
 3944  3943  3946     1 
 3945  3943  3946     1 
 3943  3946  3947     1 
 3943  3946  3948     1 
 3943  3946  3965     1 
 3947  3946  3948     1 
 3947  3946  3965     1 
 3948  3946  3965     1 
 3946  3948  3949     1 
 3948  3949  3950     1 
 3948  3949  3951     1 
 3948  3949  3967     1 
 3950  3949  3951     1 
 3950  3949  3967     1 
 3951  3949  3967     1 
 3949  3951  3952     1 
 3949  3951  3963     1 
 3952  3951  3963     1 
 3951  3952  3953     1 
 3951  3952  3954     1 
 3953  3952  3954     1 
 3952  3954  3955     1 
 3952  3954  3959     1 
 3955  3954  3959     1 
 3954  3955  3956     1 
 3954  3955  3957     1 
 3954  3955  3958     1 
 3956  3955  3957     1 
 3956  3955  3958     1 
 3957  3955  3958     1 
 3954  3959  3960     1 
 3954  3959  3961     1 
 3960  3959  3961     1 
 3959  3961  3962     1 
 3959  3961  3963     1 
 3962  3961  3963     1 
 3951  3963  3961     1 
 3951  3963  3964     1 
 3961  3963  3964     1 
 3946  3965  3966     1 
 3946  3965  3967     1 
 3946  3965  3970     1 
 3966  3965  3967     1 
 3966  3965  3970     1 
 3967  3965  3970     1 
 3949  3967  3965     1 
 3949  3967  3968     1 
 3949  3967  3969     1 
 3965  3967  3968     1 
 3965  3967  3969     1 
 3968  3967  3969     1 
 3965  3970  3971     1 
 3970  3971  3972     1 
 3970  3971  3973     1 
 3970  3971  3974     1 
 3972  3971  3973     1 
 3972  3971  3974     1 
 3973  3971  3974     1 
 3971  3974  3975     1 
 3974  3975  3976     1 
 3974  3975  3977     1 
 3974  3975  3978     1 
 3976  3975  3977     1 
 3976  3975  3978     1 
 3977  3975  3978     1 
 3975  3978  3979     1 
 3975  3978  3980     1 
 3975  3978  3995     1 
 3979  3978  3980     1 
 3979  3978  3995     1 
 3980  3978  3995     1 
 3978  3980  3981     1 
 3980  3981  3982     1 
 3980  3981  3983     1 
 3980  3981  3997     1 
 3982  3981  3983     1 
 3982  3981  3997     1 
 3983  3981  3997     1 
 3981  3983  3984     1 
 3981  3983  3993     1 
 3984  3983  3993     1 
 3983  3984  3985     1 
 3983  3984  3986     1 
 3985  3984  3986     1 
 3984  3986  3987     1 
 3984  3986  3988     1 
 3987  3986  3988     1 
 3986  3988  3989     1 
 3986  3988  3992     1 
 3989  3988  3992     1 
 3988  3989  3990     1 
 3988  3989  3991     1 
 3990  3989  3991     1 
 3988  3992  3993     1 
 3983  3993  3992     1 
 3983  3993  3994     1 
 3992  3993  3994     1 
 3978  3995  3996     1 
 3978  3995  3997     1 
 3978  3995  4000     1 
 3996  3995  3997     1 
 3996  3995  4000     1 
 3997  3995  4000     1 
 3981  3997  3995     1 
 3981  3997  3998     1 
 3981  3997  3999     1 
 3995  3997  3998     1 
 3995  3997  3999     1 
 3998  3997  3999     1 
 3995  4000  4001     1 
 4000  4001  4002     1 
 4000  4001  4003     1 
 4000  4001  4004     1 
 4002  4001  4003     1 
 4002  4001  4004     1 
 4003  4001  4004     1 
 4001  4004  4005     1 
 4004  4005  4006     1 
 4004  4005  4007     1 
 4004  4005  4008     1 
 4006  4005  4007     1 
 4006  4005  4008     1 
 4007  4005  4008     1 
 4005  4008  4009     1 
 4005  4008  4010     1 
 4005  4008  4025     1 
 4009  4008  4010     1 
 4009  4008  4025     1 
 4010  4008  4025     1 
 4008  4010  4011     1 
 4010  4011  4012     1 
 4010  4011  4013     1 
 4010  4011  4027     1 
 4012  4011  4013     1 
 4012  4011  4027     1 
 4013  4011  4027     1 
 4011  4013  4014     1 
 4011  4013  4023     1 
 4014  4013  4023     1 
 4013  4014  4015     1 
 4013  4014  4016     1 
 4015  4014  4016     1 
 4014  4016  4017     1 
 4014  4016  4018     1 
 4017  4016  4018     1 
 4016  4018  4019     1 
 4016  4018  4022     1 
 4019  4018  4022     1 
 4018  4019  4020     1 
 4018  4019  4021     1 
 4020  4019  4021     1 
 4018  4022  4023     1 
 4013  4023  4022     1 
 4013  4023  4024     1 
 4022  4023  4024     1 
 4008  4025  4026     1 
 4008  4025  4027     1 
 4008  4025  4030     1 
 4026  4025  4027     1 
 4026  4025  4030     1 
 4027  4025  4030     1 
 4011  4027  4025     1 
 4011  4027  4028     1 
 4011  4027  4029     1 
 4025  4027  4028     1 
 4025  4027  4029     1 
 4028  4027  4029     1 
 4025  4030  4031     1 
 4030  4031  4032     1 
 4030  4031  4033     1 
 4030  4031  4034     1 
 4032  4031  4033     1 
 4032  4031  4034     1 
 4033  4031  4034     1 
 4031  4034  4035     1 
 4034  4035  4036     1 
 4034  4035  4037     1 
 4034  4035  4038     1 
 4036  4035  4037     1 
 4036  4035  4038     1 
 4037  4035  4038     1 
 4035  4038  4039     1 
 4035  4038  4040     1 
 4035  4038  4058     1 
 4039  4038  4040     1 
 4039  4038  4058     1 
 4040  4038  4058     1 
 4038  4040  4041     1 
 4040  4041  4042     1 
 4040  4041  4043     1 
 4040  4041  4060     1 
 4042  4041  4043     1 
 4042  4041  4060     1 
 4043  4041  4060     1 
 4041  4043  4044     1 
 4041  4043  4057     1 
 4044  4043  4057     1 
 4043  4044  4045     1 
 4043  4044  4046     1 
 4045  4044  4046     1 
 4044  4046  4047     1 
 4046  4047  4048     1 
 4046  4047  4057     1 
 4048  4047  4057     1 
 4047  4048  4049     1 
 4047  4048  4050     1 
 4049  4048  4050     1 
 4048  4050  4051     1 
 4048  4050  4052     1 
 4051  4050  4052     1 
 4050  4052  4053     1 
 4050  4052  4056     1 
 4053  4052  4056     1 
 4052  4053  4054     1 
 4052  4053  4055     1 
 4054  4053  4055     1 
 4052  4056  4057     1 
 4043  4057  4047     1 
 4043  4057  4056     1 
 4047  4057  4056     1 
 4038  4058  4059     1 
 4038  4058  4060     1 
 4038  4058  4063     1 
 4059  4058  4060     1 
 4059  4058  4063     1 
 4060  4058  4063     1 
 4041  4060  4058     1 
 4041  4060  4061     1 
 4041  4060  4062     1 
 4058  4060  4061     1 
 4058  4060  4062     1 
 4061  4060  4062     1 
 4058  4063  4064     1 
 4063  4064  4065     1 
 4063  4064  4066     1 
 4063  4064  4067     1 
 4065  4064  4066     1 
 4065  4064  4067     1 
 4066  4064  4067     1 
 4064  4067  4068     1 
 4067  4068  4069     1 
 4067  4068  4070     1 
 4067  4068  4071     1 
 4069  4068  4070     1 
 4069  4068  4071     1 
 4070  4068  4071     1 
 4068  4071  4072     1 
 4068  4071  4073     1 
 4068  4071  4090     1 
 4072  4071  4073     1 
 4072  4071  4090     1 
 4073  4071  4090     1 
 4071  4073  4074     1 
 4073  4074  4075     1 
 4073  4074  4076     1 
 4073  4074  4092     1 
 4075  4074  4076     1 
 4075  4074  4092     1 
 4076  4074  4092     1 
 4074  4076  4077     1 
 4074  4076  4089     1 
 4077  4076  4089     1 
 4076  4077  4078     1 
 4076  4077  4079     1 
 4078  4077  4079     1 
 4077  4079  4080     1 
 4079  4080  4081     1 
 4079  4080  4089     1 
 4081  4080  4089     1 
 4080  4081  4082     1 
 4080  4081  4085     1 
 4082  4081  4085     1 
 4081  4082  4083     1 
 4081  4082  4084     1 
 4083  4082  4084     1 
 4081  4085  4086     1 
 4085  4086  4087     1 
 4085  4086  4088     1 
 4087  4086  4088     1 
 4086  4088  4089     1 
 4076  4089  4080     1 
 4076  4089  4088     1 
 4080  4089  4088     1 
 4071  4090  4091     1 
 4071  4090  4092     1 
 4071  4090  4095     1 
 4091  4090  4092     1 
 4091  4090  4095     1 
 4092  4090  4095     1 
 4074  4092  4090     1 
 4074  4092  4093     1 
 4074  4092  4094     1 
 4090  4092  4093     1 
 4090  4092  4094     1 
 4093  4092  4094     1 
 4090  4095  4096     1 
 4095  4096  4097     1 
 4095  4096  4098     1 
 4095  4096  4099     1 
 4097  4096  4098     1 
 4097  4096  4099     1 
 4098  4096  4099     1 
 4096  4099  4100     1 
 4099  4100  4101     1 
 4099  4100  4102     1 
 4099  4100  4103     1 
 4101  4100  4102     1 
 4101  4100  4103     1 
 4102  4100  4103     1 
 4100  4103  4104     1 
 4100  4103  4105     1 
 4100  4103  4122     1 
 4104  4103  4105     1 
 4104  4103  4122     1 
 4105  4103  4122     1 
 4103  4105  4106     1 
 4105  4106  4107     1 
 4105  4106  4108     1 
 4105  4106  4124     1 
 4107  4106  4108     1 
 4107  4106  4124     1 
 4108  4106  4124     1 
 4106  4108  4109     1 
 4106  4108  4121     1 
 4109  4108  4121     1 
 4108  4109  4110     1 
 4108  4109  4111     1 
 4110  4109  4111     1 
 4109  4111  4112     1 
 4111  4112  4113     1 
 4111  4112  4121     1 
 4113  4112  4121     1 
 4112  4113  4114     1 
 4112  4113  4117     1 
 4114  4113  4117     1 
 4113  4114  4115     1 
 4113  4114  4116     1 
 4115  4114  4116     1 
 4113  4117  4118     1 
 4117  4118  4119     1 
 4117  4118  4120     1 
 4119  4118  4120     1 
 4118  4120  4121     1 
 4108  4121  4112     1 
 4108  4121  4120     1 
 4112  4121  4120     1 
 4103  4122  4123     1 
 4103  4122  4124     1 
 4103  4122  4127     1 
 4123  4122  4124     1 
 4123  4122  4127     1 
 4124  4122  4127     1 
 4106  4124  4122     1 
 4106  4124  4125     1 
 4106  4124  4126     1 
 4122  4124  4125     1 
 4122  4124  4126     1 
 4125  4124  4126     1 
 4122  4127  4128     1 
 4127  4128  4129     1 
 4127  4128  4130     1 
 4127  4128  4131     1 
 4129  4128  4130     1 
 4129  4128  4131     1 
 4130  4128  4131     1 
 4128  4131  4132     1 
 4131  4132  4133     1 
 4131  4132  4134     1 
 4131  4132  4135     1 
 4133  4132  4134     1 
 4133  4132  4135     1 
 4134  4132  4135     1 
 4132  4135  4136     1 
 4132  4135  4137     1 
 4132  4135  4154     1 
 4136  4135  4137     1 
 4136  4135  4154     1 
 4137  4135  4154     1 
 4135  4137  4138     1 
 4137  4138  4139     1 
 4137  4138  4140     1 
 4137  4138  4156     1 
 4139  4138  4140     1 
 4139  4138  4156     1 
 4140  4138  4156     1 
 4138  4140  4141     1 
 4138  4140  4153     1 
 4141  4140  4153     1 
 4140  4141  4142     1 
 4140  4141  4143     1 
 4142  4141  4143     1 
 4141  4143  4144     1 
 4143  4144  4145     1 
 4143  4144  4153     1 
 4145  4144  4153     1 
 4144  4145  4146     1 
 4144  4145  4149     1 
 4146  4145  4149     1 
 4145  4146  4147     1 
 4145  4146  4148     1 
 4147  4146  4148     1 
 4145  4149  4150     1 
 4149  4150  4151     1 
 4149  4150  4152     1 
 4151  4150  4152     1 
 4150  4152  4153     1 
 4140  4153  4144     1 
 4140  4153  4152     1 
 4144  4153  4152     1 
 4135  4154  4155     1 
 4135  4154  4156     1 
 4135  4154  4159     1 
 4155  4154  4156     1 
 4155  4154  4159     1 
 4156  4154  4159     1 
 4138  4156  4154     1 
 4138  4156  4157     1 
 4138  4156  4158     1 
 4154  4156  4157     1 
 4154  4156  4158     1 
 4157  4156  4158     1 
 4154  4159  4160     1 
 4159  4160  4161     1 
 4159  4160  4162     1 
 4159  4160  4163     1 
 4161  4160  4162     1 
 4161  4160  4163     1 
 4162  4160  4163     1 
 4160  4163  4164     1 
 4163  4164  4165     1 
 4163  4164  4166     1 
 4163  4164  4167     1 
 4165  4164  4166     1 
 4165  4164  4167     1 
 4166  4164  4167     1 
 4164  4167  4168     1 
 4164  4167  4169     1 
 4164  4167  4186     1 
 4168  4167  4169     1 
 4168  4167  4186     1 
 4169  4167  4186     1 
 4167  4169  4170     1 
 4169  4170  4171     1 
 4169  4170  4172     1 
 4169  4170  4188     1 
 4171  4170  4172     1 
 4171  4170  4188     1 
 4172  4170  4188     1 
 4170  4172  4173     1 
 4170  4172  4184     1 
 4173  4172  4184     1 
 4172  4173  4174     1 
 4172  4173  4175     1 
 4174  4173  4175     1 
 4173  4175  4176     1 
 4173  4175  4180     1 
 4176  4175  4180     1 
 4175  4176  4177     1 
 4175  4176  4178     1 
 4175  4176  4179     1 
 4177  4176  4178     1 
 4177  4176  4179     1 
 4178  4176  4179     1 
 4175  4180  4181     1 
 4175  4180  4182     1 
 4181  4180  4182     1 
 4180  4182  4183     1 
 4180  4182  4184     1 
 4183  4182  4184     1 
 4172  4184  4182     1 
 4172  4184  4185     1 
 4182  4184  4185     1 
 4167  4186  4187     1 
 4167  4186  4188     1 
 4167  4186  4191     1 
 4187  4186  4188     1 
 4187  4186  4191     1 
 4188  4186  4191     1 
 4170  4188  4186     1 
 4170  4188  4189     1 
 4170  4188  4190     1 
 4186  4188  4189     1 
 4186  4188  4190     1 
 4189  4188  4190     1 
 4186  4191  4192     1 
 4191  4192  4193     1 
 4191  4192  4194     1 
 4191  4192  4195     1 
 4193  4192  4194     1 
 4193  4192  4195     1 
 4194  4192  4195     1 
 4192  4195  4196     1 
 4195  4196  4197     1 
 4195  4196  4198     1 
 4195  4196  4199     1 
 4197  4196  4198     1 
 4197  4196  4199     1 
 4198  4196  4199     1 
 4196  4199  4200     1 
 4196  4199  4201     1 
 4196  4199  4219     1 
 4200  4199  4201     1 
 4200  4199  4219     1 
 4201  4199  4219     1 
 4199  4201  4202     1 
 4201  4202  4203     1 
 4201  4202  4204     1 
 4201  4202  4221     1 
 4203  4202  4204     1 
 4203  4202  4221     1 
 4204  4202  4221     1 
 4202  4204  4205     1 
 4202  4204  4218     1 
 4205  4204  4218     1 
 4204  4205  4206     1 
 4204  4205  4207     1 
 4206  4205  4207     1 
 4205  4207  4208     1 
 4207  4208  4209     1 
 4207  4208  4218     1 
 4209  4208  4218     1 
 4208  4209  4210     1 
 4208  4209  4211     1 
 4210  4209  4211     1 
 4209  4211  4212     1 
 4209  4211  4213     1 
 4212  4211  4213     1 
 4211  4213  4214     1 
 4211  4213  4217     1 
 4214  4213  4217     1 
 4213  4214  4215     1 
 4213  4214  4216     1 
 4215  4214  4216     1 
 4213  4217  4218     1 
 4204  4218  4208     1 
 4204  4218  4217     1 
 4208  4218  4217     1 
 4199  4219  4220     1 
 4199  4219  4221     1 
 4199  4219  4224     1 
 4220  4219  4221     1 
 4220  4219  4224     1 
 4221  4219  4224     1 
 4202  4221  4219     1 
 4202  4221  4222     1 
 4202  4221  4223     1 
 4219  4221  4222     1 
 4219  4221  4223     1 
 4222  4221  4223     1 
 4219  4224  4225     1 
 4224  4225  4226     1 
 4224  4225  4227     1 
 4224  4225  4228     1 
 4226  4225  4227     1 
 4226  4225  4228     1 
 4227  4225  4228     1 
 4225  4228  4229     1 
 4228  4229  4230     1 
 4228  4229  4231     1 
 4228  4229  4232     1 
 4230  4229  4231     1 
 4230  4229  4232     1 
 4231  4229  4232     1 
 4229  4232  4233     1 
 4229  4232  4234     1 
 4229  4232  4252     1 
 4233  4232  4234     1 
 4233  4232  4252     1 
 4234  4232  4252     1 
 4232  4234  4235     1 
 4234  4235  4236     1 
 4234  4235  4237     1 
 4234  4235  4254     1 
 4236  4235  4237     1 
 4236  4235  4254     1 
 4237  4235  4254     1 
 4235  4237  4238     1 
 4235  4237  4251     1 
 4238  4237  4251     1 
 4237  4238  4239     1 
 4237  4238  4240     1 
 4239  4238  4240     1 
 4238  4240  4241     1 
 4240  4241  4242     1 
 4240  4241  4251     1 
 4242  4241  4251     1 
 4241  4242  4243     1 
 4241  4242  4244     1 
 4243  4242  4244     1 
 4242  4244  4245     1 
 4242  4244  4246     1 
 4245  4244  4246     1 
 4244  4246  4247     1 
 4244  4246  4250     1 
 4247  4246  4250     1 
 4246  4247  4248     1 
 4246  4247  4249     1 
 4248  4247  4249     1 
 4246  4250  4251     1 
 4237  4251  4241     1 
 4237  4251  4250     1 
 4241  4251  4250     1 
 4232  4252  4253     1 
 4232  4252  4254     1 
 4232  4252  4257     1 
 4253  4252  4254     1 
 4253  4252  4257     1 
 4254  4252  4257     1 
 4235  4254  4252     1 
 4235  4254  4255     1 
 4235  4254  4256     1 
 4252  4254  4255     1 
 4252  4254  4256     1 
 4255  4254  4256     1 
 4252  4257  4258     1 
 4257  4258  4259     1 
 4257  4258  4260     1 
 4257  4258  4261     1 
 4259  4258  4260     1 
 4259  4258  4261     1 
 4260  4258  4261     1 
 4258  4261  4262     1 
 4261  4262  4263     1 
 4261  4262  4264     1 
 4261  4262  4265     1 
 4263  4262  4264     1 
 4263  4262  4265     1 
 4264  4262  4265     1 
 4262  4265  4266     1 
 4262  4265  4267     1 
 4262  4265  4282     1 
 4266  4265  4267     1 
 4266  4265  4282     1 
 4267  4265  4282     1 
 4265  4267  4268     1 
 4267  4268  4269     1 
 4267  4268  4270     1 
 4267  4268  4284     1 
 4269  4268  4270     1 
 4269  4268  4284     1 
 4270  4268  4284     1 
 4268  4270  4271     1 
 4268  4270  4280     1 
 4271  4270  4280     1 
 4270  4271  4272     1 
 4270  4271  4273     1 
 4272  4271  4273     1 
 4271  4273  4274     1 
 4271  4273  4275     1 
 4274  4273  4275     1 
 4273  4275  4276     1 
 4273  4275  4279     1 
 4276  4275  4279     1 
 4275  4276  4277     1 
 4275  4276  4278     1 
 4277  4276  4278     1 
 4275  4279  4280     1 
 4270  4280  4279     1 
 4270  4280  4281     1 
 4279  4280  4281     1 
 4265  4282  4283     1 
 4265  4282  4284     1 
 4265  4282  4287     1 
 4283  4282  4284     1 
 4283  4282  4287     1 
 4284  4282  4287     1 
 4268  4284  4282     1 
 4268  4284  4285     1 
 4268  4284  4286     1 
 4282  4284  4285     1 
 4282  4284  4286     1 
 4285  4284  4286     1 
 4282  4287  4288     1 
 4287  4288  4289     1 
 4287  4288  4290     1 
 4287  4288  4291     1 
 4289  4288  4290     1 
 4289  4288  4291     1 
 4290  4288  4291     1 
 4288  4291  4292     1 
 4291  4292  4293     1 
 4291  4292  4294     1 
 4291  4292  4295     1 
 4293  4292  4294     1 
 4293  4292  4295     1 
 4294  4292  4295     1 
 4292  4295  4296     1 
 4292  4295  4297     1 
 4292  4295  4315     1 
 4296  4295  4297     1 
 4296  4295  4315     1 
 4297  4295  4315     1 
 4295  4297  4298     1 
 4297  4298  4299     1 
 4297  4298  4300     1 
 4297  4298  4317     1 
 4299  4298  4300     1 
 4299  4298  4317     1 
 4300  4298  4317     1 
 4298  4300  4301     1 
 4298  4300  4314     1 
 4301  4300  4314     1 
 4300  4301  4302     1 
 4300  4301  4303     1 
 4302  4301  4303     1 
 4301  4303  4304     1 
 4303  4304  4305     1 
 4303  4304  4314     1 
 4305  4304  4314     1 
 4304  4305  4306     1 
 4304  4305  4307     1 
 4306  4305  4307     1 
 4305  4307  4308     1 
 4305  4307  4309     1 
 4308  4307  4309     1 
 4307  4309  4310     1 
 4307  4309  4313     1 
 4310  4309  4313     1 
 4309  4310  4311     1 
 4309  4310  4312     1 
 4311  4310  4312     1 
 4309  4313  4314     1 
 4300  4314  4304     1 
 4300  4314  4313     1 
 4304  4314  4313     1 
 4295  4315  4316     1 
 4295  4315  4317     1 
 4295  4315  4320     1 
 4316  4315  4317     1 
 4316  4315  4320     1 
 4317  4315  4320     1 
 4298  4317  4315     1 
 4298  4317  4318     1 
 4298  4317  4319     1 
 4315  4317  4318     1 
 4315  4317  4319     1 
 4318  4317  4319     1 
 4315  4320  4321     1 
 4320  4321  4322     1 
 4320  4321  4323     1 
 4320  4321  4324     1 
 4322  4321  4323     1 
 4322  4321  4324     1 
 4323  4321  4324     1 
 4321  4324  4325     1 
 4324  4325  4326     1 
 4324  4325  4327     1 
 4324  4325  4328     1 
 4326  4325  4327     1 
 4326  4325  4328     1 
 4327  4325  4328     1 
 4325  4328  4329     1 
 4325  4328  4330     1 
 4325  4328  4348     1 
 4329  4328  4330     1 
 4329  4328  4348     1 
 4330  4328  4348     1 
 4328  4330  4331     1 
 4330  4331  4332     1 
 4330  4331  4333     1 
 4330  4331  4350     1 
 4332  4331  4333     1 
 4332  4331  4350     1 
 4333  4331  4350     1 
 4331  4333  4334     1 
 4331  4333  4347     1 
 4334  4333  4347     1 
 4333  4334  4335     1 
 4333  4334  4336     1 
 4335  4334  4336     1 
 4334  4336  4337     1 
 4336  4337  4338     1 
 4336  4337  4347     1 
 4338  4337  4347     1 
 4337  4338  4339     1 
 4337  4338  4340     1 
 4339  4338  4340     1 
 4338  4340  4341     1 
 4338  4340  4342     1 
 4341  4340  4342     1 
 4340  4342  4343     1 
 4340  4342  4346     1 
 4343  4342  4346     1 
 4342  4343  4344     1 
 4342  4343  4345     1 
 4344  4343  4345     1 
 4342  4346  4347     1 
 4333  4347  4337     1 
 4333  4347  4346     1 
 4337  4347  4346     1 
 4328  4348  4349     1 
 4328  4348  4350     1 
 4328  4348  4353     1 
 4349  4348  4350     1 
 4349  4348  4353     1 
 4350  4348  4353     1 
 4331  4350  4348     1 
 4331  4350  4351     1 
 4331  4350  4352     1 
 4348  4350  4351     1 
 4348  4350  4352     1 
 4351  4350  4352     1 
 4348  4353  4354     1 
 4353  4354  4355     1 
 4353  4354  4356     1 
 4353  4354  4357     1 
 4355  4354  4356     1 
 4355  4354  4357     1 
 4356  4354  4357     1 
 4354  4357  4358     1 
 4357  4358  4359     1 
 4357  4358  4360     1 
 4357  4358  4361     1 
 4359  4358  4360     1 
 4359  4358  4361     1 
 4360  4358  4361     1 
 4358  4361  4362     1 
 4358  4361  4363     1 
 4358  4361  4381     1 
 4362  4361  4363     1 
 4362  4361  4381     1 
 4363  4361  4381     1 
 4361  4363  4364     1 
 4363  4364  4365     1 
 4363  4364  4366     1 
 4363  4364  4383     1 
 4365  4364  4366     1 
 4365  4364  4383     1 
 4366  4364  4383     1 
 4364  4366  4367     1 
 4364  4366  4380     1 
 4367  4366  4380     1 
 4366  4367  4368     1 
 4366  4367  4369     1 
 4368  4367  4369     1 
 4367  4369  4370     1 
 4369  4370  4371     1 
 4369  4370  4380     1 
 4371  4370  4380     1 
 4370  4371  4372     1 
 4370  4371  4373     1 
 4372  4371  4373     1 
 4371  4373  4374     1 
 4371  4373  4375     1 
 4374  4373  4375     1 
 4373  4375  4376     1 
 4373  4375  4379     1 
 4376  4375  4379     1 
 4375  4376  4377     1 
 4375  4376  4378     1 
 4377  4376  4378     1 
 4375  4379  4380     1 
 4366  4380  4370     1 
 4366  4380  4379     1 
 4370  4380  4379     1 
 4361  4381  4382     1 
 4361  4381  4383     1 
 4361  4381  4386     1 
 4382  4381  4383     1 
 4382  4381  4386     1 
 4383  4381  4386     1 
 4364  4383  4381     1 
 4364  4383  4384     1 
 4364  4383  4385     1 
 4381  4383  4384     1 
 4381  4383  4385     1 
 4384  4383  4385     1 
 4381  4386  4387     1 
 4386  4387  4388     1 
 4386  4387  4389     1 
 4386  4387  4390     1 
 4388  4387  4389     1 
 4388  4387  4390     1 
 4389  4387  4390     1 
 4387  4390  4391     1 
 4390  4391  4392     1 
 4390  4391  4393     1 
 4390  4391  4394     1 
 4392  4391  4393     1 
 4392  4391  4394     1 
 4393  4391  4394     1 
 4391  4394  4395     1 
 4391  4394  4396     1 
 4391  4394  4414     1 
 4395  4394  4396     1 
 4395  4394  4414     1 
 4396  4394  4414     1 
 4394  4396  4397     1 
 4396  4397  4398     1 
 4396  4397  4399     1 
 4396  4397  4416     1 
 4398  4397  4399     1 
 4398  4397  4416     1 
 4399  4397  4416     1 
 4397  4399  4400     1 
 4397  4399  4413     1 
 4400  4399  4413     1 
 4399  4400  4401     1 
 4399  4400  4402     1 
 4401  4400  4402     1 
 4400  4402  4403     1 
 4402  4403  4404     1 
 4402  4403  4413     1 
 4404  4403  4413     1 
 4403  4404  4405     1 
 4403  4404  4406     1 
 4405  4404  4406     1 
 4404  4406  4407     1 
 4404  4406  4408     1 
 4407  4406  4408     1 
 4406  4408  4409     1 
 4406  4408  4412     1 
 4409  4408  4412     1 
 4408  4409  4410     1 
 4408  4409  4411     1 
 4410  4409  4411     1 
 4408  4412  4413     1 
 4399  4413  4403     1 
 4399  4413  4412     1 
 4403  4413  4412     1 
 4394  4414  4415     1 
 4394  4414  4416     1 
 4394  4414  4419     1 
 4415  4414  4416     1 
 4415  4414  4419     1 
 4416  4414  4419     1 
 4397  4416  4414     1 
 4397  4416  4417     1 
 4397  4416  4418     1 
 4414  4416  4417     1 
 4414  4416  4418     1 
 4417  4416  4418     1 
 4414  4419  4420     1 
 4419  4420  4421     1 
 4419  4420  4422     1 
 4419  4420  4423     1 
 4421  4420  4422     1 
 4421  4420  4423     1 
 4422  4420  4423     1 
 4420  4423  4424     1 
 4423  4424  4425     1 
 4423  4424  4426     1 
 4423  4424  4427     1 
 4425  4424  4426     1 
 4425  4424  4427     1 
 4426  4424  4427     1 
 4424  4427  4428     1 
 4424  4427  4429     1 
 4424  4427  4447     1 
 4428  4427  4429     1 
 4428  4427  4447     1 
 4429  4427  4447     1 
 4427  4429  4430     1 
 4429  4430  4431     1 
 4429  4430  4432     1 
 4429  4430  4449     1 
 4431  4430  4432     1 
 4431  4430  4449     1 
 4432  4430  4449     1 
 4430  4432  4433     1 
 4430  4432  4446     1 
 4433  4432  4446     1 
 4432  4433  4434     1 
 4432  4433  4435     1 
 4434  4433  4435     1 
 4433  4435  4436     1 
 4435  4436  4437     1 
 4435  4436  4446     1 
 4437  4436  4446     1 
 4436  4437  4438     1 
 4436  4437  4439     1 
 4438  4437  4439     1 
 4437  4439  4440     1 
 4437  4439  4441     1 
 4440  4439  4441     1 
 4439  4441  4442     1 
 4439  4441  4445     1 
 4442  4441  4445     1 
 4441  4442  4443     1 
 4441  4442  4444     1 
 4443  4442  4444     1 
 4441  4445  4446     1 
 4432  4446  4436     1 
 4432  4446  4445     1 
 4436  4446  4445     1 
 4427  4447  4448     1 
 4427  4447  4449     1 
 4427  4447  4452     1 
 4448  4447  4449     1 
 4448  4447  4452     1 
 4449  4447  4452     1 
 4430  4449  4447     1 
 4430  4449  4450     1 
 4430  4449  4451     1 
 4447  4449  4450     1 
 4447  4449  4451     1 
 4450  4449  4451     1 
 4447  4452  4453     1 
 4452  4453  4454     1 
 4452  4453  4455     1 
 4452  4453  4456     1 
 4454  4453  4455     1 
 4454  4453  4456     1 
 4455  4453  4456     1 
 4453  4456  4457     1 
 4456  4457  4458     1 
 4456  4457  4459     1 
 4456  4457  4460     1 
 4458  4457  4459     1 
 4458  4457  4460     1 
 4459  4457  4460     1 
 4457  4460  4461     1 
 4457  4460  4462     1 
 4457  4460  4477     1 
 4461  4460  4462     1 
 4461  4460  4477     1 
 4462  4460  4477     1 
 4460  4462  4463     1 
 4462  4463  4464     1 
 4462  4463  4465     1 
 4462  4463  4479     1 
 4464  4463  4465     1 
 4464  4463  4479     1 
 4465  4463  4479     1 
 4463  4465  4466     1 
 4463  4465  4475     1 
 4466  4465  4475     1 
 4465  4466  4467     1 
 4465  4466  4468     1 
 4467  4466  4468     1 
 4466  4468  4469     1 
 4466  4468  4470     1 
 4469  4468  4470     1 
 4468  4470  4471     1 
 4468  4470  4474     1 
 4471  4470  4474     1 
 4470  4471  4472     1 
 4470  4471  4473     1 
 4472  4471  4473     1 
 4470  4474  4475     1 
 4465  4475  4474     1 
 4465  4475  4476     1 
 4474  4475  4476     1 
 4460  4477  4478     1 
 4460  4477  4479     1 
 4460  4477  4482     1 
 4478  4477  4479     1 
 4478  4477  4482     1 
 4479  4477  4482     1 
 4463  4479  4477     1 
 4463  4479  4480     1 
 4463  4479  4481     1 
 4477  4479  4480     1 
 4477  4479  4481     1 
 4480  4479  4481     1 
 4477  4482  4483     1 
 4482  4483  4484     1 
 4482  4483  4485     1 
 4482  4483  4486     1 
 4484  4483  4485     1 
 4484  4483  4486     1 
 4485  4483  4486     1 
 4483  4486  4487     1 
 4486  4487  4488     1 
 4486  4487  4489     1 
 4486  4487  4490     1 
 4488  4487  4489     1 
 4488  4487  4490     1 
 4489  4487  4490     1 
 4487  4490  4491     1 
 4487  4490  4492     1 
 4487  4490  4507     1 
 4491  4490  4492     1 
 4491  4490  4507     1 
 4492  4490  4507     1 
 4490  4492  4493     1 
 4492  4493  4494     1 
 4492  4493  4495     1 
 4492  4493  4509     1 
 4494  4493  4495     1 
 4494  4493  4509     1 
 4495  4493  4509     1 
 4493  4495  4496     1 
 4493  4495  4505     1 
 4496  4495  4505     1 
 4495  4496  4497     1 
 4495  4496  4498     1 
 4497  4496  4498     1 
 4496  4498  4499     1 
 4496  4498  4500     1 
 4499  4498  4500     1 
 4498  4500  4501     1 
 4498  4500  4504     1 
 4501  4500  4504     1 
 4500  4501  4502     1 
 4500  4501  4503     1 
 4502  4501  4503     1 
 4500  4504  4505     1 
 4495  4505  4504     1 
 4495  4505  4506     1 
 4504  4505  4506     1 
 4490  4507  4508     1 
 4490  4507  4509     1 
 4490  4507  4512     1 
 4508  4507  4509     1 
 4508  4507  4512     1 
 4509  4507  4512     1 
 4493  4509  4507     1 
 4493  4509  4510     1 
 4493  4509  4511     1 
 4507  4509  4510     1 
 4507  4509  4511     1 
 4510  4509  4511     1 
 4507  4512  4513     1 
 4512  4513  4514     1 
 4512  4513  4515     1 
 4512  4513  4516     1 
 4514  4513  4515     1 
 4514  4513  4516     1 
 4515  4513  4516     1 
 4513  4516  4517     1 
 4516  4517  4518     1 
 4516  4517  4519     1 
 4516  4517  4520     1 
 4518  4517  4519     1 
 4518  4517  4520     1 
 4519  4517  4520     1 
 4517  4520  4521     1 
 4517  4520  4522     1 
 4517  4520  4540     1 
 4521  4520  4522     1 
 4521  4520  4540     1 
 4522  4520  4540     1 
 4520  4522  4523     1 
 4522  4523  4524     1 
 4522  4523  4525     1 
 4522  4523  4542     1 
 4524  4523  4525     1 
 4524  4523  4542     1 
 4525  4523  4542     1 
 4523  4525  4526     1 
 4523  4525  4539     1 
 4526  4525  4539     1 
 4525  4526  4527     1 
 4525  4526  4528     1 
 4527  4526  4528     1 
 4526  4528  4529     1 
 4528  4529  4530     1 
 4528  4529  4539     1 
 4530  4529  4539     1 
 4529  4530  4531     1 
 4529  4530  4532     1 
 4531  4530  4532     1 
 4530  4532  4533     1 
 4530  4532  4534     1 
 4533  4532  4534     1 
 4532  4534  4535     1 
 4532  4534  4538     1 
 4535  4534  4538     1 
 4534  4535  4536     1 
 4534  4535  4537     1 
 4536  4535  4537     1 
 4534  4538  4539     1 
 4525  4539  4529     1 
 4525  4539  4538     1 
 4529  4539  4538     1 
 4520  4540  4541     1 
 4520  4540  4542     1 
 4520  4540  4545     1 
 4541  4540  4542     1 
 4541  4540  4545     1 
 4542  4540  4545     1 
 4523  4542  4540     1 
 4523  4542  4543     1 
 4523  4542  4544     1 
 4540  4542  4543     1 
 4540  4542  4544     1 
 4543  4542  4544     1 
 4540  4545  4546     1 
 4545  4546  4547     1 
 4545  4546  4548     1 
 4545  4546  4549     1 
 4547  4546  4548     1 
 4547  4546  4549     1 
 4548  4546  4549     1 
 4546  4549  4550     1 
 4549  4550  4551     1 
 4549  4550  4552     1 
 4549  4550  4553     1 
 4551  4550  4552     1 
 4551  4550  4553     1 
 4552  4550  4553     1 
 4550  4553  4554     1 
 4550  4553  4555     1 
 4550  4553  4573     1 
 4554  4553  4555     1 
 4554  4553  4573     1 
 4555  4553  4573     1 
 4553  4555  4556     1 
 4555  4556  4557     1 
 4555  4556  4558     1 
 4555  4556  4575     1 
 4557  4556  4558     1 
 4557  4556  4575     1 
 4558  4556  4575     1 
 4556  4558  4559     1 
 4556  4558  4572     1 
 4559  4558  4572     1 
 4558  4559  4560     1 
 4558  4559  4561     1 
 4560  4559  4561     1 
 4559  4561  4562     1 
 4561  4562  4563     1 
 4561  4562  4572     1 
 4563  4562  4572     1 
 4562  4563  4564     1 
 4562  4563  4565     1 
 4564  4563  4565     1 
 4563  4565  4566     1 
 4563  4565  4567     1 
 4566  4565  4567     1 
 4565  4567  4568     1 
 4565  4567  4571     1 
 4568  4567  4571     1 
 4567  4568  4569     1 
 4567  4568  4570     1 
 4569  4568  4570     1 
 4567  4571  4572     1 
 4558  4572  4562     1 
 4558  4572  4571     1 
 4562  4572  4571     1 
 4553  4573  4574     1 
 4553  4573  4575     1 
 4553  4573  4578     1 
 4574  4573  4575     1 
 4574  4573  4578     1 
 4575  4573  4578     1 
 4556  4575  4573     1 
 4556  4575  4576     1 
 4556  4575  4577     1 
 4573  4575  4576     1 
 4573  4575  4577     1 
 4576  4575  4577     1 
 4573  4578  4579     1 
 4578  4579  4580     1 
 4578  4579  4581     1 
 4578  4579  4582     1 
 4580  4579  4581     1 
 4580  4579  4582     1 
 4581  4579  4582     1 
 4579  4582  4583     1 
 4582  4583  4584     1 
 4582  4583  4585     1 
 4582  4583  4586     1 
 4584  4583  4585     1 
 4584  4583  4586     1 
 4585  4583  4586     1 
 4583  4586  4587     1 
 4583  4586  4588     1 
 4583  4586  4606     1 
 4587  4586  4588     1 
 4587  4586  4606     1 
 4588  4586  4606     1 
 4586  4588  4589     1 
 4588  4589  4590     1 
 4588  4589  4591     1 
 4588  4589  4608     1 
 4590  4589  4591     1 
 4590  4589  4608     1 
 4591  4589  4608     1 
 4589  4591  4592     1 
 4589  4591  4605     1 
 4592  4591  4605     1 
 4591  4592  4593     1 
 4591  4592  4594     1 
 4593  4592  4594     1 
 4592  4594  4595     1 
 4594  4595  4596     1 
 4594  4595  4605     1 
 4596  4595  4605     1 
 4595  4596  4597     1 
 4595  4596  4598     1 
 4597  4596  4598     1 
 4596  4598  4599     1 
 4596  4598  4600     1 
 4599  4598  4600     1 
 4598  4600  4601     1 
 4598  4600  4604     1 
 4601  4600  4604     1 
 4600  4601  4602     1 
 4600  4601  4603     1 
 4602  4601  4603     1 
 4600  4604  4605     1 
 4591  4605  4595     1 
 4591  4605  4604     1 
 4595  4605  4604     1 
 4586  4606  4607     1 
 4586  4606  4608     1 
 4586  4606  4611     1 
 4607  4606  4608     1 
 4607  4606  4611     1 
 4608  4606  4611     1 
 4589  4608  4606     1 
 4589  4608  4609     1 
 4589  4608  4610     1 
 4606  4608  4609     1 
 4606  4608  4610     1 
 4609  4608  4610     1 
 4606  4611  4612     1 

[ dihedrals ]
;  ai    aj    ak    al funct            c0            c1            c2            c3            c4            c5
    2     1     3     4     9 
    2     1     3     5     9 
    2     1     3     6     9 
    1     3     6     7     9 
    1     3     6     8     9 
    1     3     6    25     9 
    4     3     6     7     9 
    4     3     6     8     9 
    4     3     6    25     9 
    5     3     6     7     9 
    5     3     6     8     9 
    5     3     6    25     9 
    3     6     8     9     9 
    7     6     8     9     9 
   25     6     8     9     9 
    3     6    25    26     9 
    3     6    25    27     9 
    3     6    25    30     9 
    7     6    25    26     9 
    7     6    25    27     9 
    7     6    25    30     9 
    8     6    25    26     9 
    8     6    25    27     9 
    8     6    25    30     9 
    6     8     9    10     9 
    6     8     9    11     9 
    6     8     9    27     9 
    8     9    11    12     9 
    8     9    11    24     9 
   10     9    11    12     9 
   10     9    11    24     9 
   27     9    11    12     9 
   27     9    11    24     9 
    8     9    27    25     9 
    8     9    27    28     9 
    8     9    27    29     9 
   10     9    27    25     9 
   10     9    27    28     9 
   10     9    27    29     9 
   11     9    27    25     9 
   11     9    27    28     9 
   11     9    27    29     9 
    9    11    12    13     9 
    9    11    12    14     9 
   24    11    12    13     9 
   24    11    12    14     9 
    9    11    24    15     9 
    9    11    24    23     9 
   12    11    24    15     9 
   12    11    24    23     9 
   11    12    14    15     9 
   13    12    14    15     9 
   12    14    15    16     9 
   12    14    15    24     9 
   14    15    16    17     9 
   14    15    16    20     9 
   24    15    16    17     9 
   24    15    16    20     9 
   14    15    24    11     9 
   14    15    24    23     9 
   16    15    24    11     9 
   16    15    24    23     9 
   15    16    17    18     9 
   15    16    17    19     9 
   20    16    17    18     9 
   20    16    17    19     9 
   15    16    20    21     9 
   17    16    20    21     9 
   16    20    21    22     9 
   16    20    21    23     9 
   20    21    23    24     9 
   22    21    23    24     9 
   21    23    24    11     9 
   21    23    24    15     9 
    6    25    27     9     9 
    6    25    27    28     9 
    6    25    27    29     9 
   26    25    27     9     9 
   26    25    27    28     9 
   26    25    27    29     9 
   30    25    27     9     9 
   30    25    27    28     9 
   30    25    27    29     9 
    6    25    30    31     9 
   26    25    30    31     9 
   27    25    30    31     9 
   25    30    31    32     9 
   25    30    31    33     9 
   25    30    31    34     9 
   30    31    34    35     9 
   32    31    34    35     9 
   33    31    34    35     9 
   31    34    35    36     9 
   31    34    35    37     9 
   31    34    35    38     9 
   34    35    38    39     9 
   34    35    38    40     9 
   34    35    38    58     9 
   36    35    38    39     9 
   36    35    38    40     9 
   36    35    38    58     9 
   37    35    38    39     9 
   37    35    38    40     9 
   37    35    38    58     9 
   35    38    40    41     9 
   39    38    40    41     9 
   58    38    40    41     9 
   35    38    58    59     9 
   35    38    58    60     9 
   35    38    58    63     9 
   39    38    58    59     9 
   39    38    58    60     9 
   39    38    58    63     9 
   40    38    58    59     9 
   40    38    58    60     9 
   40    38    58    63     9 
   38    40    41    42     9 
   38    40    41    43     9 
   38    40    41    60     9 
   40    41    43    44     9 
   40    41    43    57     9 
   42    41    43    44     9 
   42    41    43    57     9 
   60    41    43    44     9 
   60    41    43    57     9 
   40    41    60    58     9 
   40    41    60    61     9 
   40    41    60    62     9 
   42    41    60    58     9 
   42    41    60    61     9 
   42    41    60    62     9 
   43    41    60    58     9 
   43    41    60    61     9 
   43    41    60    62     9 
   41    43    44    45     9 
   41    43    44    46     9 
   57    43    44    45     9 
   57    43    44    46     9 
   41    43    57    47     9 
   41    43    57    56     9 
   44    43    57    47     9 
   44    43    57    56     9 
   43    44    46    47     9 
   45    44    46    47     9 
   44    46    47    48     9 
   44    46    47    57     9 
   46    47    48    49     9 
   46    47    48    50     9 
   57    47    48    49     9 
   57    47    48    50     9 
   46    47    57    43     9 
   46    47    57    56     9 
   48    47    57    43     9 
   48    47    57    56     9 
   47    48    50    51     9 
   47    48    50    52     9 
   49    48    50    51     9 
   49    48    50    52     9 
   48    50    52    53     9 
   48    50    52    56     9 
   51    50    52    53     9 
   51    50    52    56     9 
   50    52    53    54     9 
   50    52    53    55     9 
   56    52    53    54     9 
   56    52    53    55     9 
   50    52    56    57     9 
   53    52    56    57     9 
   52    56    57    43     9 
   52    56    57    47     9 
   38    58    60    41     9 
   38    58    60    61     9 
   38    58    60    62     9 
   59    58    60    41     9 
   59    58    60    61     9 
   59    58    60    62     9 
   63    58    60    41     9 
   63    58    60    61     9 
   63    58    60    62     9 
   38    58    63    64     9 
   59    58    63    64     9 
   60    58    63    64     9 
   58    63    64    65     9 
   58    63    64    66     9 
   58    63    64    67     9 
   63    64    67    68     9 
   65    64    67    68     9 
   66    64    67    68     9 
   64    67    68    69     9 
   64    67    68    70     9 
   64    67    68    71     9 
   67    68    71    72     9 
   67    68    71    73     9 
   67    68    71    91     9 
   69    68    71    72     9 
   69    68    71    73     9 
   69    68    71    91     9 
   70    68    71    72     9 
   70    68    71    73     9 
   70    68    71    91     9 
   68    71    73    74     9 
   72    71    73    74     9 
   91    71    73    74     9 
   68    71    91    92     9 
   68    71    91    93     9 
   68    71    91    96     9 
   72    71    91    92     9 
   72    71    91    93     9 
   72    71    91    96     9 
   73    71    91    92     9 
   73    71    91    93     9 
   73    71    91    96     9 
   71    73    74    75     9 
   71    73    74    76     9 
   71    73    74    93     9 
   73    74    76    77     9 
   73    74    76    90     9 
   75    74    76    77     9 
   75    74    76    90     9 
   93    74    76    77     9 
   93    74    76    90     9 
   73    74    93    91     9 
   73    74    93    94     9 
   73    74    93    95     9 
   75    74    93    91     9 
   75    74    93    94     9 
   75    74    93    95     9 
   76    74    93    91     9 
   76    74    93    94     9 
   76    74    93    95     9 
   74    76    77    78     9 
   74    76    77    79     9 
   90    76    77    78     9 
   90    76    77    79     9 
   74    76    90    80     9 
   74    76    90    89     9 
   77    76    90    80     9 
   77    76    90    89     9 
   76    77    79    80     9 
   78    77    79    80     9 
   77    79    80    81     9 
   77    79    80    90     9 
   79    80    81    82     9 
   79    80    81    83     9 
   90    80    81    82     9 
   90    80    81    83     9 
   79    80    90    76     9 
   79    80    90    89     9 
   81    80    90    76     9 
   81    80    90    89     9 
   80    81    83    84     9 
   80    81    83    85     9 
   82    81    83    84     9 
   82    81    83    85     9 
   81    83    85    86     9 
   81    83    85    89     9 
   84    83    85    86     9 
   84    83    85    89     9 
   83    85    86    87     9 
   83    85    86    88     9 
   89    85    86    87     9 
   89    85    86    88     9 
   83    85    89    90     9 
   86    85    89    90     9 
   85    89    90    76     9 
   85    89    90    80     9 
   71    91    93    74     9 
   71    91    93    94     9 
   71    91    93    95     9 
   92    91    93    74     9 
   92    91    93    94     9 
   92    91    93    95     9 
   96    91    93    74     9 
   96    91    93    94     9 
   96    91    93    95     9 
   71    91    96    97     9 
   92    91    96    97     9 
   93    91    96    97     9 
   91    96    97    98     9 
   91    96    97    99     9 
   91    96    97   100     9 
   96    97   100   101     9 
   98    97   100   101     9 
   99    97   100   101     9 
   97   100   101   102     9 
   97   100   101   103     9 
   97   100   101   104     9 
  100   101   104   105     9 
  100   101   104   106     9 
  100   101   104   124     9 
  102   101   104   105     9 
  102   101   104   106     9 
  102   101   104   124     9 
  103   101   104   105     9 
  103   101   104   106     9 
  103   101   104   124     9 
  101   104   106   107     9 
  105   104   106   107     9 
  124   104   106   107     9 
  101   104   124   125     9 
  101   104   124   126     9 
  101   104   124   129     9 
  105   104   124   125     9 
  105   104   124   126     9 
  105   104   124   129     9 
  106   104   124   125     9 
  106   104   124   126     9 
  106   104   124   129     9 
  104   106   107   108     9 
  104   106   107   109     9 
  104   106   107   126     9 
  106   107   109   110     9 
  106   107   109   123     9 
  108   107   109   110     9 
  108   107   109   123     9 
  126   107   109   110     9 
  126   107   109   123     9 
  106   107   126   124     9 
  106   107   126   127     9 
  106   107   126   128     9 
  108   107   126   124     9 
  108   107   126   127     9 
  108   107   126   128     9 
  109   107   126   124     9 
  109   107   126   127     9 
  109   107   126   128     9 
  107   109   110   111     9 
  107   109   110   112     9 
  123   109   110   111     9 
  123   109   110   112     9 
  107   109   123   113     9 
  107   109   123   122     9 
  110   109   123   113     9 
  110   109   123   122     9 
  109   110   112   113     9 
  111   110   112   113     9 
  110   112   113   114     9 
  110   112   113   123     9 
  112   113   114   115     9 
  112   113   114   116     9 
  123   113   114   115     9 
  123   113   114   116     9 
  112   113   123   109     9 
  112   113   123   122     9 
  114   113   123   109     9 
  114   113   123   122     9 
  113   114   116   117     9 
  113   114   116   118     9 
  115   114   116   117     9 
  115   114   116   118     9 
  114   116   118   119     9 
  114   116   118   122     9 
  117   116   118   119     9 
  117   116   118   122     9 
  116   118   119   120     9 
  116   118   119   121     9 
  122   118   119   120     9 
  122   118   119   121     9 
  116   118   122   123     9 
  119   118   122   123     9 
  118   122   123   109     9 
  118   122   123   113     9 
  104   124   126   107     9 
  104   124   126   127     9 
  104   124   126   128     9 
  125   124   126   107     9 
  125   124   126   127     9 
  125   124   126   128     9 
  129   124   126   107     9 
  129   124   126   127     9 
  129   124   126   128     9 
  104   124   129   130     9 
  125   124   129   130     9 
  126   124   129   130     9 
  124   129   130   131     9 
  124   129   130   132     9 
  124   129   130   133     9 
  129   130   133   134     9 
  131   130   133   134     9 
  132   130   133   134     9 
  130   133   134   135     9 
  130   133   134   136     9 
  130   133   134   137     9 
  133   134   137   138     9 
  133   134   137   139     9 
  133   134   137   156     9 
  135   134   137   138     9 
  135   134   137   139     9 
  135   134   137   156     9 
  136   134   137   138     9 
  136   134   137   139     9 
  136   134   137   156     9 
  134   137   139   140     9 
  138   137   139   140     9 
  156   137   139   140     9 
  134   137   156   157     9 
  134   137   156   158     9 
  134   137   156   161     9 
  138   137   156   157     9 
  138   137   156   158     9 
  138   137   156   161     9 
  139   137   156   157     9 
  139   137   156   158     9 
  139   137   156   161     9 
  137   139   140   141     9 
  137   139   140   142     9 
  137   139   140   158     9 
  139   140   142   143     9 
  139   140   142   154     9 
  141   140   142   143     9 
  141   140   142   154     9 
  158   140   142   143     9 
  158   140   142   154     9 
  139   140   158   156     9 
  139   140   158   159     9 
  139   140   158   160     9 
  141   140   158   156     9 
  141   140   158   159     9 
  141   140   158   160     9 
  142   140   158   156     9 
  142   140   158   159     9 
  142   140   158   160     9 
  140   142   143   144     9 
  140   142   143   145     9 
  154   142   143   144     9 
  154   142   143   145     9 
  140   142   154   152     9 
  140   142   154   155     9 
  143   142   154   152     9 
  143   142   154   155     9 
  142   143   145   146     9 
  142   143   145   150     9 
  144   143   145   146     9 
  144   143   145   150     9 
  143   145   146   147     9 
  143   145   146   148     9 
  143   145   146   149     9 
  150   145   146   147     9 
  150   145   146   148     9 
  150   145   146   149     9 
  143   145   150   151     9 
  143   145   150   152     9 
  146   145   150   151     9 
  146   145   150   152     9 
  145   150   152   153     9 
  145   150   152   154     9 
  151   150   152   153     9 
  151   150   152   154     9 
  150   152   154   142     9 
  150   152   154   155     9 
  153   152   154   142     9 
  153   152   154   155     9 
  137   156   158   140     9 
  137   156   158   159     9 
  137   156   158   160     9 
  157   156   158   140     9 
  157   156   158   159     9 
  157   156   158   160     9 
  161   156   158   140     9 
  161   156   158   159     9 
  161   156   158   160     9 
  137   156   161   162     9 
  157   156   161   162     9 
  158   156   161   162     9 
  156   161   162   163     9 
  156   161   162   164     9 
  156   161   162   165     9 
  161   162   165   166     9 
  163   162   165   166     9 
  164   162   165   166     9 
  162   165   166   167     9 
  162   165   166   168     9 
  162   165   166   169     9 
  165   166   169   170     9 
  165   166   169   171     9 
  165   166   169   186     9 
  167   166   169   170     9 
  167   166   169   171     9 
  167   166   169   186     9 
  168   166   169   170     9 
  168   166   169   171     9 
  168   166   169   186     9 
  166   169   171   172     9 
  170   169   171   172     9 
  186   169   171   172     9 
  166   169   186   187     9 
  166   169   186   188     9 
  166   169   186   191     9 
  170   169   186   187     9 
  170   169   186   188     9 
  170   169   186   191     9 
  171   169   186   187     9 
  171   169   186   188     9 
  171   169   186   191     9 
  169   171   172   173     9 
  169   171   172   174     9 
  169   171   172   188     9 
  171   172   174   175     9 
  171   172   174   184     9 
  173   172   174   175     9 
  173   172   174   184     9 
  188   172   174   175     9 
  188   172   174   184     9 
  171   172   188   186     9 
  171   172   188   189     9 
  171   172   188   190     9 
  173   172   188   186     9 
  173   172   188   189     9 
  173   172   188   190     9 
  174   172   188   186     9 
  174   172   188   189     9 
  174   172   188   190     9 
  172   174   175   176     9 
  172   174   175   177     9 
  184   174   175   176     9 
  184   174   175   177     9 
  172   174   184   183     9 
  172   174   184   185     9 
  175   174   184   183     9 
  175   174   184   185     9 
  174   175   177   178     9 
  174   175   177   179     9 
  176   175   177   178     9 
  176   175   177   179     9 
  175   177   179   180     9 
  175   177   179   183     9 
  178   177   179   180     9 
  178   177   179   183     9 
  177   179   180   181     9 
  177   179   180   182     9 
  183   179   180   181     9 
  183   179   180   182     9 
  177   179   183   184     9 
  180   179   183   184     9 
  179   183   184   174     9 
  179   183   184   185     9 
  169   186   188   172     9 
  169   186   188   189     9 
  169   186   188   190     9 
  187   186   188   172     9 
  187   186   188   189     9 
  187   186   188   190     9 
  191   186   188   172     9 
  191   186   188   189     9 
  191   186   188   190     9 
  169   186   191   192     9 
  187   186   191   192     9 
  188   186   191   192     9 
  186   191   192   193     9 
  186   191   192   194     9 
  186   191   192   195     9 
  191   192   195   196     9 
  193   192   195   196     9 
  194   192   195   196     9 
  192   195   196   197     9 
  192   195   196   198     9 
  192   195   196   199     9 
  195   196   199   200     9 
  195   196   199   201     9 
  195   196   199   219     9 
  197   196   199   200     9 
  197   196   199   201     9 
  197   196   199   219     9 
  198   196   199   200     9 
  198   196   199   201     9 
  198   196   199   219     9 
  196   199   201   202     9 
  200   199   201   202     9 
  219   199   201   202     9 
  196   199   219   220     9 
  196   199   219   221     9 
  196   199   219   224     9 
  200   199   219   220     9 
  200   199   219   221     9 
  200   199   219   224     9 
  201   199   219   220     9 
  201   199   219   221     9 
  201   199   219   224     9 
  199   201   202   203     9 
  199   201   202   204     9 
  199   201   202   221     9 
  201   202   204   205     9 
  201   202   204   218     9 
  203   202   204   205     9 
  203   202   204   218     9 
  221   202   204   205     9 
  221   202   204   218     9 
  201   202   221   219     9 
  201   202   221   222     9 
  201   202   221   223     9 
  203   202   221   219     9 
  203   202   221   222     9 
  203   202   221   223     9 
  204   202   221   219     9 
  204   202   221   222     9 
  204   202   221   223     9 
  202   204   205   206     9 
  202   204   205   207     9 
  218   204   205   206     9 
  218   204   205   207     9 
  202   204   218   208     9 
  202   204   218   217     9 
  205   204   218   208     9 
  205   204   218   217     9 
  204   205   207   208     9 
  206   205   207   208     9 
  205   207   208   209     9 
  205   207   208   218     9 
  207   208   209   210     9 
  207   208   209   211     9 
  218   208   209   210     9 
  218   208   209   211     9 
  207   208   218   204     9 
  207   208   218   217     9 
  209   208   218   204     9 
  209   208   218   217     9 
  208   209   211   212     9 
  208   209   211   213     9 
  210   209   211   212     9 
  210   209   211   213     9 
  209   211   213   214     9 
  209   211   213   217     9 
  212   211   213   214     9 
  212   211   213   217     9 
  211   213   214   215     9 
  211   213   214   216     9 
  217   213   214   215     9 
  217   213   214   216     9 
  211   213   217   218     9 
  214   213   217   218     9 
  213   217   218   204     9 
  213   217   218   208     9 
  199   219   221   202     9 
  199   219   221   222     9 
  199   219   221   223     9 
  220   219   221   202     9 
  220   219   221   222     9 
  220   219   221   223     9 
  224   219   221   202     9 
  224   219   221   222     9 
  224   219   221   223     9 
  199   219   224   225     9 
  220   219   224   225     9 
  221   219   224   225     9 
  219   224   225   226     9 
  219   224   225   227     9 
  219   224   225   228     9 
  224   225   228   229     9 
  226   225   228   229     9 
  227   225   228   229     9 
  225   228   229   230     9 
  225   228   229   231     9 
  225   228   229   232     9 
  228   229   232   233     9 
  228   229   232   234     9 
  228   229   232   252     9 
  230   229   232   233     9 
  230   229   232   234     9 
  230   229   232   252     9 
  231   229   232   233     9 
  231   229   232   234     9 
  231   229   232   252     9 
  229   232   234   235     9 
  233   232   234   235     9 
  252   232   234   235     9 
  229   232   252   253     9 
  229   232   252   254     9 
  229   232   252   257     9 
  233   232   252   253     9 
  233   232   252   254     9 
  233   232   252   257     9 
  234   232   252   253     9 
  234   232   252   254     9 
  234   232   252   257     9 
  232   234   235   236     9 
  232   234   235   237     9 
  232   234   235   254     9 
  234   235   237   238     9 
  234   235   237   251     9 
  236   235   237   238     9 
  236   235   237   251     9 
  254   235   237   238     9 
  254   235   237   251     9 
  234   235   254   252     9 
  234   235   254   255     9 
  234   235   254   256     9 
  236   235   254   252     9 
  236   235   254   255     9 
  236   235   254   256     9 
  237   235   254   252     9 
  237   235   254   255     9 
  237   235   254   256     9 
  235   237   238   239     9 
  235   237   238   240     9 
  251   237   238   239     9 
  251   237   238   240     9 
  235   237   251   241     9 
  235   237   251   250     9 
  238   237   251   241     9 
  238   237   251   250     9 
  237   238   240   241     9 
  239   238   240   241     9 
  238   240   241   242     9 
  238   240   241   251     9 
  240   241   242   243     9 
  240   241   242   244     9 
  251   241   242   243     9 
  251   241   242   244     9 
  240   241   251   237     9 
  240   241   251   250     9 
  242   241   251   237     9 
  242   241   251   250     9 
  241   242   244   245     9 
  241   242   244   246     9 
  243   242   244   245     9 
  243   242   244   246     9 
  242   244   246   247     9 
  242   244   246   250     9 
  245   244   246   247     9 
  245   244   246   250     9 
  244   246   247   248     9 
  244   246   247   249     9 
  250   246   247   248     9 
  250   246   247   249     9 
  244   246   250   251     9 
  247   246   250   251     9 
  246   250   251   237     9 
  246   250   251   241     9 
  232   252   254   235     9 
  232   252   254   255     9 
  232   252   254   256     9 
  253   252   254   235     9 
  253   252   254   255     9 
  253   252   254   256     9 
  257   252   254   235     9 
  257   252   254   255     9 
  257   252   254   256     9 
  232   252   257   258     9 
  253   252   257   258     9 
  254   252   257   258     9 
  252   257   258   259     9 
  252   257   258   260     9 
  252   257   258   261     9 
  257   258   261   262     9 
  259   258   261   262     9 
  260   258   261   262     9 
  258   261   262   263     9 
  258   261   262   264     9 
  258   261   262   265     9 
  261   262   265   266     9 
  261   262   265   267     9 
  261   262   265   285     9 
  263   262   265   266     9 
  263   262   265   267     9 
  263   262   265   285     9 
  264   262   265   266     9 
  264   262   265   267     9 
  264   262   265   285     9 
  262   265   267   268     9 
  266   265   267   268     9 
  285   265   267   268     9 
  262   265   285   286     9 
  262   265   285   287     9 
  262   265   285   290     9 
  266   265   285   286     9 
  266   265   285   287     9 
  266   265   285   290     9 
  267   265   285   286     9 
  267   265   285   287     9 
  267   265   285   290     9 
  265   267   268   269     9 
  265   267   268   270     9 
  265   267   268   287     9 
  267   268   270   271     9 
  267   268   270   284     9 
  269   268   270   271     9 
  269   268   270   284     9 
  287   268   270   271     9 
  287   268   270   284     9 
  267   268   287   285     9 
  267   268   287   288     9 
  267   268   287   289     9 
  269   268   287   285     9 
  269   268   287   288     9 
  269   268   287   289     9 
  270   268   287   285     9 
  270   268   287   288     9 
  270   268   287   289     9 
  268   270   271   272     9 
  268   270   271   273     9 
  284   270   271   272     9 
  284   270   271   273     9 
  268   270   284   274     9 
  268   270   284   283     9 
  271   270   284   274     9 
  271   270   284   283     9 
  270   271   273   274     9 
  272   271   273   274     9 
  271   273   274   275     9 
  271   273   274   284     9 
  273   274   275   276     9 
  273   274   275   277     9 
  284   274   275   276     9 
  284   274   275   277     9 
  273   274   284   270     9 
  273   274   284   283     9 
  275   274   284   270     9 
  275   274   284   283     9 
  274   275   277   278     9 
  274   275   277   279     9 
  276   275   277   278     9 
  276   275   277   279     9 
  275   277   279   280     9 
  275   277   279   283     9 
  278   277   279   280     9 
  278   277   279   283     9 
  277   279   280   281     9 
  277   279   280   282     9 
  283   279   280   281     9 
  283   279   280   282     9 
  277   279   283   284     9 
  280   279   283   284     9 
  279   283   284   270     9 
  279   283   284   274     9 
  265   285   287   268     9 
  265   285   287   288     9 
  265   285   287   289     9 
  286   285   287   268     9 
  286   285   287   288     9 
  286   285   287   289     9 
  290   285   287   268     9 
  290   285   287   288     9 
  290   285   287   289     9 
  265   285   290   291     9 
  286   285   290   291     9 
  287   285   290   291     9 
  285   290   291   292     9 
  285   290   291   293     9 
  285   290   291   294     9 
  290   291   294   295     9 
  292   291   294   295     9 
  293   291   294   295     9 
  291   294   295   296     9 
  291   294   295   297     9 
  291   294   295   298     9 
  294   295   298   299     9 
  294   295   298   300     9 
  294   295   298   317     9 
  296   295   298   299     9 
  296   295   298   300     9 
  296   295   298   317     9 
  297   295   298   299     9 
  297   295   298   300     9 
  297   295   298   317     9 
  295   298   300   301     9 
  299   298   300   301     9 
  317   298   300   301     9 
  295   298   317   318     9 
  295   298   317   319     9 
  295   298   317   322     9 
  299   298   317   318     9 
  299   298   317   319     9 
  299   298   317   322     9 
  300   298   317   318     9 
  300   298   317   319     9 
  300   298   317   322     9 
  298   300   301   302     9 
  298   300   301   303     9 
  298   300   301   319     9 
  300   301   303   304     9 
  300   301   303   316     9 
  302   301   303   304     9 
  302   301   303   316     9 
  319   301   303   304     9 
  319   301   303   316     9 
  300   301   319   317     9 
  300   301   319   320     9 
  300   301   319   321     9 
  302   301   319   317     9 
  302   301   319   320     9 
  302   301   319   321     9 
  303   301   319   317     9 
  303   301   319   320     9 
  303   301   319   321     9 
  301   303   304   305     9 
  301   303   304   306     9 
  316   303   304   305     9 
  316   303   304   306     9 
  301   303   316   307     9 
  301   303   316   315     9 
  304   303   316   307     9 
  304   303   316   315     9 
  303   304   306   307     9 
  305   304   306   307     9 
  304   306   307   308     9 
  304   306   307   316     9 
  306   307   308   309     9 
  306   307   308   312     9 
  316   307   308   309     9 
  316   307   308   312     9 
  306   307   316   303     9 
  306   307   316   315     9 
  308   307   316   303     9 
  308   307   316   315     9 
  307   308   309   310     9 
  307   308   309   311     9 
  312   308   309   310     9 
  312   308   309   311     9 
  307   308   312   313     9 
  309   308   312   313     9 
  308   312   313   314     9 
  308   312   313   315     9 
  312   313   315   316     9 
  314   313   315   316     9 
  313   315   316   303     9 
  313   315   316   307     9 
  298   317   319   301     9 
  298   317   319   320     9 
  298   317   319   321     9 
  318   317   319   301     9 
  318   317   319   320     9 
  318   317   319   321     9 
  322   317   319   301     9 
  322   317   319   320     9 
  322   317   319   321     9 
  298   317   322   323     9 
  318   317   322   323     9 
  319   317   322   323     9 
  317   322   323   324     9 
  317   322   323   325     9 
  317   322   323   326     9 
  322   323   326   327     9 
  324   323   326   327     9 
  325   323   326   327     9 
  323   326   327   328     9 
  323   326   327   329     9 
  323   326   327   330     9 
  326   327   330   331     9 
  326   327   330   332     9 
  326   327   330   347     9 
  328   327   330   331     9 
  328   327   330   332     9 
  328   327   330   347     9 
  329   327   330   331     9 
  329   327   330   332     9 
  329   327   330   347     9 
  327   330   332   333     9 
  331   330   332   333     9 
  347   330   332   333     9 
  327   330   347   348     9 
  327   330   347   349     9 
  327   330   347   352     9 
  331   330   347   348     9 
  331   330   347   349     9 
  331   330   347   352     9 
  332   330   347   348     9 
  332   330   347   349     9 
  332   330   347   352     9 
  330   332   333   334     9 
  330   332   333   335     9 
  330   332   333   349     9 
  332   333   335   336     9 
  332   333   335   345     9 
  334   333   335   336     9 
  334   333   335   345     9 
  349   333   335   336     9 
  349   333   335   345     9 
  332   333   349   347     9 
  332   333   349   350     9 
  332   333   349   351     9 
  334   333   349   347     9 
  334   333   349   350     9 
  334   333   349   351     9 
  335   333   349   347     9 
  335   333   349   350     9 
  335   333   349   351     9 
  333   335   336   337     9 
  333   335   336   338     9 
  345   335   336   337     9 
  345   335   336   338     9 
  333   335   345   344     9 
  333   335   345   346     9 
  336   335   345   344     9 
  336   335   345   346     9 
  335   336   338   339     9 
  335   336   338   340     9 
  337   336   338   339     9 
  337   336   338   340     9 
  336   338   340   341     9 
  336   338   340   344     9 
  339   338   340   341     9 
  339   338   340   344     9 
  338   340   341   342     9 
  338   340   341   343     9 
  344   340   341   342     9 
  344   340   341   343     9 
  338   340   344   345     9 
  341   340   344   345     9 
  340   344   345   335     9 
  340   344   345   346     9 
  330   347   349   333     9 
  330   347   349   350     9 
  330   347   349   351     9 
  348   347   349   333     9 
  348   347   349   350     9 
  348   347   349   351     9 
  352   347   349   333     9 
  352   347   349   350     9 
  352   347   349   351     9 
  330   347   352   353     9 
  348   347   352   353     9 
  349   347   352   353     9 
  347   352   353   354     9 
  347   352   353   355     9 
  347   352   353   356     9 
  352   353   356   357     9 
  354   353   356   357     9 
  355   353   356   357     9 
  353   356   357   358     9 
  353   356   357   359     9 
  353   356   357   360     9 
  356   357   360   361     9 
  356   357   360   362     9 
  356   357   360   377     9 
  358   357   360   361     9 
  358   357   360   362     9 
  358   357   360   377     9 
  359   357   360   361     9 
  359   357   360   362     9 
  359   357   360   377     9 
  357   360   362   363     9 
  361   360   362   363     9 
  377   360   362   363     9 
  357   360   377   378     9 
  357   360   377   379     9 
  357   360   377   382     9 
  361   360   377   378     9 
  361   360   377   379     9 
  361   360   377   382     9 
  362   360   377   378     9 
  362   360   377   379     9 
  362   360   377   382     9 
  360   362   363   364     9 
  360   362   363   365     9 
  360   362   363   379     9 
  362   363   365   366     9 
  362   363   365   375     9 
  364   363   365   366     9 
  364   363   365   375     9 
  379   363   365   366     9 
  379   363   365   375     9 
  362   363   379   377     9 
  362   363   379   380     9 
  362   363   379   381     9 
  364   363   379   377     9 
  364   363   379   380     9 
  364   363   379   381     9 
  365   363   379   377     9 
  365   363   379   380     9 
  365   363   379   381     9 
  363   365   366   367     9 
  363   365   366   368     9 
  375   365   366   367     9 
  375   365   366   368     9 
  363   365   375   374     9 
  363   365   375   376     9 
  366   365   375   374     9 
  366   365   375   376     9 
  365   366   368   369     9 
  365   366   368   370     9 
  367   366   368   369     9 
  367   366   368   370     9 
  366   368   370   371     9 
  366   368   370   374     9 
  369   368   370   371     9 
  369   368   370   374     9 
  368   370   371   372     9 
  368   370   371   373     9 
  374   370   371   372     9 
  374   370   371   373     9 
  368   370   374   375     9 
  371   370   374   375     9 
  370   374   375   365     9 
  370   374   375   376     9 
  360   377   379   363     9 
  360   377   379   380     9 
  360   377   379   381     9 
  378   377   379   363     9 
  378   377   379   380     9 
  378   377   379   381     9 
  382   377   379   363     9 
  382   377   379   380     9 
  382   377   379   381     9 
  360   377   382   383     9 
  378   377   382   383     9 
  379   377   382   383     9 
  377   382   383   384     9 
  377   382   383   385     9 
  377   382   383   386     9 
  382   383   386   387     9 
  384   383   386   387     9 
  385   383   386   387     9 
  383   386   387   388     9 
  383   386   387   389     9 
  383   386   387   390     9 
  386   387   390   391     9 
  386   387   390   392     9 
  386   387   390   407     9 
  388   387   390   391     9 
  388   387   390   392     9 
  388   387   390   407     9 
  389   387   390   391     9 
  389   387   390   392     9 
  389   387   390   407     9 
  387   390   392   393     9 
  391   390   392   393     9 
  407   390   392   393     9 
  387   390   407   408     9 
  387   390   407   409     9 
  387   390   407   412     9 
  391   390   407   408     9 
  391   390   407   409     9 
  391   390   407   412     9 
  392   390   407   408     9 
  392   390   407   409     9 
  392   390   407   412     9 
  390   392   393   394     9 
  390   392   393   395     9 
  390   392   393   409     9 
  392   393   395   396     9 
  392   393   395   405     9 
  394   393   395   396     9 
  394   393   395   405     9 
  409   393   395   396     9 
  409   393   395   405     9 
  392   393   409   407     9 
  392   393   409   410     9 
  392   393   409   411     9 
  394   393   409   407     9 
  394   393   409   410     9 
  394   393   409   411     9 
  395   393   409   407     9 
  395   393   409   410     9 
  395   393   409   411     9 
  393   395   396   397     9 
  393   395   396   398     9 
  405   395   396   397     9 
  405   395   396   398     9 
  393   395   405   404     9 
  393   395   405   406     9 
  396   395   405   404     9 
  396   395   405   406     9 
  395   396   398   399     9 
  395   396   398   400     9 
  397   396   398   399     9 
  397   396   398   400     9 
  396   398   400   401     9 
  396   398   400   404     9 
  399   398   400   401     9 
  399   398   400   404     9 
  398   400   401   402     9 
  398   400   401   403     9 
  404   400   401   402     9 
  404   400   401   403     9 
  398   400   404   405     9 
  401   400   404   405     9 
  400   404   405   395     9 
  400   404   405   406     9 
  390   407   409   393     9 
  390   407   409   410     9 
  390   407   409   411     9 
  408   407   409   393     9 
  408   407   409   410     9 
  408   407   409   411     9 
  412   407   409   393     9 
  412   407   409   410     9 
  412   407   409   411     9 
  390   407   412   413     9 
  408   407   412   413     9 
  409   407   412   413     9 
  407   412   413   414     9 
  407   412   413   415     9 
  407   412   413   416     9 
  412   413   416   417     9 
  414   413   416   417     9 
  415   413   416   417     9 
  413   416   417   418     9 
  413   416   417   419     9 
  413   416   417   420     9 
  416   417   420   421     9 
  416   417   420   422     9 
  416   417   420   440     9 
  418   417   420   421     9 
  418   417   420   422     9 
  418   417   420   440     9 
  419   417   420   421     9 
  419   417   420   422     9 
  419   417   420   440     9 
  417   420   422   423     9 
  421   420   422   423     9 
  440   420   422   423     9 
  417   420   440   441     9 
  417   420   440   442     9 
  417   420   440   445     9 
  421   420   440   441     9 
  421   420   440   442     9 
  421   420   440   445     9 
  422   420   440   441     9 
  422   420   440   442     9 
  422   420   440   445     9 
  420   422   423   424     9 
  420   422   423   425     9 
  420   422   423   442     9 
  422   423   425   426     9 
  422   423   425   439     9 
  424   423   425   426     9 
  424   423   425   439     9 
  442   423   425   426     9 
  442   423   425   439     9 
  422   423   442   440     9 
  422   423   442   443     9 
  422   423   442   444     9 
  424   423   442   440     9 
  424   423   442   443     9 
  424   423   442   444     9 
  425   423   442   440     9 
  425   423   442   443     9 
  425   423   442   444     9 
  423   425   426   427     9 
  423   425   426   428     9 
  439   425   426   427     9 
  439   425   426   428     9 
  423   425   439   429     9 
  423   425   439   438     9 
  426   425   439   429     9 
  426   425   439   438     9 
  425   426   428   429     9 
  427   426   428   429     9 
  426   428   429   430     9 
  426   428   429   439     9 
  428   429   430   431     9 
  428   429   430   432     9 
  439   429   430   431     9 
  439   429   430   432     9 
  428   429   439   425     9 
  428   429   439   438     9 
  430   429   439   425     9 
  430   429   439   438     9 
  429   430   432   433     9 
  429   430   432   434     9 
  431   430   432   433     9 
  431   430   432   434     9 
  430   432   434   435     9 
  430   432   434   438     9 
  433   432   434   435     9 
  433   432   434   438     9 
  432   434   435   436     9 
  432   434   435   437     9 
  438   434   435   436     9 
  438   434   435   437     9 
  432   434   438   439     9 
  435   434   438   439     9 
  434   438   439   425     9 
  434   438   439   429     9 
  420   440   442   423     9 
  420   440   442   443     9 
  420   440   442   444     9 
  441   440   442   423     9 
  441   440   442   443     9 
  441   440   442   444     9 
  445   440   442   423     9 
  445   440   442   443     9 
  445   440   442   444     9 
  420   440   445   446     9 
  441   440   445   446     9 
  442   440   445   446     9 
  440   445   446   447     9 
  440   445   446   448     9 
  440   445   446   449     9 
  445   446   449   450     9 
  447   446   449   450     9 
  448   446   449   450     9 
  446   449   450   451     9 
  446   449   450   452     9 
  446   449   450   453     9 
  449   450   453   454     9 
  449   450   453   455     9 
  449   450   453   473     9 
  451   450   453   454     9 
  451   450   453   455     9 
  451   450   453   473     9 
  452   450   453   454     9 
  452   450   453   455     9 
  452   450   453   473     9 
  450   453   455   456     9 
  454   453   455   456     9 
  473   453   455   456     9 
  450   453   473   474     9 
  450   453   473   475     9 
  450   453   473   478     9 
  454   453   473   474     9 
  454   453   473   475     9 
  454   453   473   478     9 
  455   453   473   474     9 
  455   453   473   475     9 
  455   453   473   478     9 
  453   455   456   457     9 
  453   455   456   458     9 
  453   455   456   475     9 
  455   456   458   459     9 
  455   456   458   472     9 
  457   456   458   459     9 
  457   456   458   472     9 
  475   456   458   459     9 
  475   456   458   472     9 
  455   456   475   473     9 
  455   456   475   476     9 
  455   456   475   477     9 
  457   456   475   473     9 
  457   456   475   476     9 
  457   456   475   477     9 
  458   456   475   473     9 
  458   456   475   476     9 
  458   456   475   477     9 
  456   458   459   460     9 
  456   458   459   461     9 
  472   458   459   460     9 
  472   458   459   461     9 
  456   458   472   462     9 
  456   458   472   471     9 
  459   458   472   462     9 
  459   458   472   471     9 
  458   459   461   462     9 
  460   459   461   462     9 
  459   461   462   463     9 
  459   461   462   472     9 
  461   462   463   464     9 
  461   462   463   465     9 
  472   462   463   464     9 
  472   462   463   465     9 
  461   462   472   458     9 
  461   462   472   471     9 
  463   462   472   458     9 
  463   462   472   471     9 
  462   463   465   466     9 
  462   463   465   467     9 
  464   463   465   466     9 
  464   463   465   467     9 
  463   465   467   468     9 
  463   465   467   471     9 
  466   465   467   468     9 
  466   465   467   471     9 
  465   467   468   469     9 
  465   467   468   470     9 
  471   467   468   469     9 
  471   467   468   470     9 
  465   467   471   472     9 
  468   467   471   472     9 
  467   471   472   458     9 
  467   471   472   462     9 
  453   473   475   456     9 
  453   473   475   476     9 
  453   473   475   477     9 
  474   473   475   456     9 
  474   473   475   476     9 
  474   473   475   477     9 
  478   473   475   456     9 
  478   473   475   476     9 
  478   473   475   477     9 
  453   473   478   479     9 
  474   473   478   479     9 
  475   473   478   479     9 
  473   478   479   480     9 
  473   478   479   481     9 
  473   478   479   482     9 
  478   479   482   483     9 
  480   479   482   483     9 
  481   479   482   483     9 
  479   482   483   484     9 
  479   482   483   485     9 
  479   482   483   486     9 
  482   483   486   487     9 
  482   483   486   488     9 
  482   483   486   506     9 
  484   483   486   487     9 
  484   483   486   488     9 
  484   483   486   506     9 
  485   483   486   487     9 
  485   483   486   488     9 
  485   483   486   506     9 
  483   486   488   489     9 
  487   486   488   489     9 
  506   486   488   489     9 
  483   486   506   507     9 
  483   486   506   508     9 
  483   486   506   511     9 
  487   486   506   507     9 
  487   486   506   508     9 
  487   486   506   511     9 
  488   486   506   507     9 
  488   486   506   508     9 
  488   486   506   511     9 
  486   488   489   490     9 
  486   488   489   491     9 
  486   488   489   508     9 
  488   489   491   492     9 
  488   489   491   505     9 
  490   489   491   492     9 
  490   489   491   505     9 
  508   489   491   492     9 
  508   489   491   505     9 
  488   489   508   506     9 
  488   489   508   509     9 
  488   489   508   510     9 
  490   489   508   506     9 
  490   489   508   509     9 
  490   489   508   510     9 
  491   489   508   506     9 
  491   489   508   509     9 
  491   489   508   510     9 
  489   491   492   493     9 
  489   491   492   494     9 
  505   491   492   493     9 
  505   491   492   494     9 
  489   491   505   495     9 
  489   491   505   504     9 
  492   491   505   495     9 
  492   491   505   504     9 
  491   492   494   495     9 
  493   492   494   495     9 
  492   494   495   496     9 
  492   494   495   505     9 
  494   495   496   497     9 
  494   495   496   498     9 
  505   495   496   497     9 
  505   495   496   498     9 
  494   495   505   491     9 
  494   495   505   504     9 
  496   495   505   491     9 
  496   495   505   504     9 
  495   496   498   499     9 
  495   496   498   500     9 
  497   496   498   499     9 
  497   496   498   500     9 
  496   498   500   501     9 
  496   498   500   504     9 
  499   498   500   501     9 
  499   498   500   504     9 
  498   500   501   502     9 
  498   500   501   503     9 
  504   500   501   502     9 
  504   500   501   503     9 
  498   500   504   505     9 
  501   500   504   505     9 
  500   504   505   491     9 
  500   504   505   495     9 
  486   506   508   489     9 
  486   506   508   509     9 
  486   506   508   510     9 
  507   506   508   489     9 
  507   506   508   509     9 
  507   506   508   510     9 
  511   506   508   489     9 
  511   506   508   509     9 
  511   506   508   510     9 
  486   506   511   512     9 
  507   506   511   512     9 
  508   506   511   512     9 
  506   511   512   513     9 
  506   511   512   514     9 
  506   511   512   515     9 
  511   512   515   516     9 
  513   512   515   516     9 
  514   512   515   516     9 
  512   515   516   517     9 
  512   515   516   518     9 
  512   515   516   519     9 
  515   516   519   520     9 
  515   516   519   521     9 
  515   516   519   536     9 
  517   516   519   520     9 
  517   516   519   521     9 
  517   516   519   536     9 
  518   516   519   520     9 
  518   516   519   521     9 
  518   516   519   536     9 
  516   519   521   522     9 
  520   519   521   522     9 
  536   519   521   522     9 
  516   519   536   537     9 
  516   519   536   538     9 
  516   519   536   541     9 
  520   519   536   537     9 
  520   519   536   538     9 
  520   519   536   541     9 
  521   519   536   537     9 
  521   519   536   538     9 
  521   519   536   541     9 
  519   521   522   523     9 
  519   521   522   524     9 
  519   521   522   538     9 
  521   522   524   525     9 
  521   522   524   534     9 
  523   522   524   525     9 
  523   522   524   534     9 
  538   522   524   525     9 
  538   522   524   534     9 
  521   522   538   536     9 
  521   522   538   539     9 
  521   522   538   540     9 
  523   522   538   536     9 
  523   522   538   539     9 
  523   522   538   540     9 
  524   522   538   536     9 
  524   522   538   539     9 
  524   522   538   540     9 
  522   524   525   526     9 
  522   524   525   527     9 
  534   524   525   526     9 
  534   524   525   527     9 
  522   524   534   533     9 
  522   524   534   535     9 
  525   524   534   533     9 
  525   524   534   535     9 
  524   525   527   528     9 
  524   525   527   529     9 
  526   525   527   528     9 
  526   525   527   529     9 
  525   527   529   530     9 
  525   527   529   533     9 
  528   527   529   530     9 
  528   527   529   533     9 
  527   529   530   531     9 
  527   529   530   532     9 
  533   529   530   531     9 
  533   529   530   532     9 
  527   529   533   534     9 
  530   529   533   534     9 
  529   533   534   524     9 
  529   533   534   535     9 
  519   536   538   522     9 
  519   536   538   539     9 
  519   536   538   540     9 
  537   536   538   522     9 
  537   536   538   539     9 
  537   536   538   540     9 
  541   536   538   522     9 
  541   536   538   539     9 
  541   536   538   540     9 
  519   536   541   542     9 
  537   536   541   542     9 
  538   536   541   542     9 
  536   541   542   543     9 
  536   541   542   544     9 
  536   541   542   545     9 
  541   542   545   546     9 
  543   542   545   546     9 
  544   542   545   546     9 
  542   545   546   547     9 
  542   545   546   548     9 
  542   545   546   549     9 
  545   546   549   550     9 
  545   546   549   551     9 
  545   546   549   568     9 
  547   546   549   550     9 
  547   546   549   551     9 
  547   546   549   568     9 
  548   546   549   550     9 
  548   546   549   551     9 
  548   546   549   568     9 
  546   549   551   552     9 
  550   549   551   552     9 
  568   549   551   552     9 
  546   549   568   569     9 
  546   549   568   570     9 
  546   549   568   573     9 
  550   549   568   569     9 
  550   549   568   570     9 
  550   549   568   573     9 
  551   549   568   569     9 
  551   549   568   570     9 
  551   549   568   573     9 
  549   551   552   553     9 
  549   551   552   554     9 
  549   551   552   570     9 
  551   552   554   555     9 
  551   552   554   567     9 
  553   552   554   555     9 
  553   552   554   567     9 
  570   552   554   555     9 
  570   552   554   567     9 
  551   552   570   568     9 
  551   552   570   571     9 
  551   552   570   572     9 
  553   552   570   568     9 
  553   552   570   571     9 
  553   552   570   572     9 
  554   552   570   568     9 
  554   552   570   571     9 
  554   552   570   572     9 
  552   554   555   556     9 
  552   554   555   557     9 
  567   554   555   556     9 
  567   554   555   557     9 
  552   554   567   558     9 
  552   554   567   566     9 
  555   554   567   558     9 
  555   554   567   566     9 
  554   555   557   558     9 
  556   555   557   558     9 
  555   557   558   559     9 
  555   557   558   567     9 
  557   558   559   560     9 
  557   558   559   563     9 
  567   558   559   560     9 
  567   558   559   563     9 
  557   558   567   554     9 
  557   558   567   566     9 
  559   558   567   554     9 
  559   558   567   566     9 
  558   559   560   561     9 
  558   559   560   562     9 
  563   559   560   561     9 
  563   559   560   562     9 
  558   559   563   564     9 
  560   559   563   564     9 
  559   563   564   565     9 
  559   563   564   566     9 
  563   564   566   567     9 
  565   564   566   567     9 
  564   566   567   554     9 
  564   566   567   558     9 
  549   568   570   552     9 
  549   568   570   571     9 
  549   568   570   572     9 
  569   568   570   552     9 
  569   568   570   571     9 
  569   568   570   572     9 
  573   568   570   552     9 
  573   568   570   571     9 
  573   568   570   572     9 
  549   568   573   574     9 
  569   568   573   574     9 
  570   568   573   574     9 
  568   573   574   575     9 
  568   573   574   576     9 
  568   573   574   577     9 
  573   574   577   578     9 
  575   574   577   578     9 
  576   574   577   578     9 
  574   577   578   579     9 
  574   577   578   580     9 
  574   577   578   581     9 
  577   578   581   582     9 
  577   578   581   583     9 
  577   578   581   601     9 
  579   578   581   582     9 
  579   578   581   583     9 
  579   578   581   601     9 
  580   578   581   582     9 
  580   578   581   583     9 
  580   578   581   601     9 
  578   581   583   584     9 
  582   581   583   584     9 
  601   581   583   584     9 
  578   581   601   602     9 
  578   581   601   603     9 
  578   581   601   606     9 
  582   581   601   602     9 
  582   581   601   603     9 
  582   581   601   606     9 
  583   581   601   602     9 
  583   581   601   603     9 
  583   581   601   606     9 
  581   583   584   585     9 
  581   583   584   586     9 
  581   583   584   603     9 
  583   584   586   587     9 
  583   584   586   600     9 
  585   584   586   587     9 
  585   584   586   600     9 
  603   584   586   587     9 
  603   584   586   600     9 
  583   584   603   601     9 
  583   584   603   604     9 
  583   584   603   605     9 
  585   584   603   601     9 
  585   584   603   604     9 
  585   584   603   605     9 
  586   584   603   601     9 
  586   584   603   604     9 
  586   584   603   605     9 
  584   586   587   588     9 
  584   586   587   589     9 
  600   586   587   588     9 
  600   586   587   589     9 
  584   586   600   590     9 
  584   586   600   599     9 
  587   586   600   590     9 
  587   586   600   599     9 
  586   587   589   590     9 
  588   587   589   590     9 
  587   589   590   591     9 
  587   589   590   600     9 
  589   590   591   592     9 
  589   590   591   593     9 
  600   590   591   592     9 
  600   590   591   593     9 
  589   590   600   586     9 
  589   590   600   599     9 
  591   590   600   586     9 
  591   590   600   599     9 
  590   591   593   594     9 
  590   591   593   595     9 
  592   591   593   594     9 
  592   591   593   595     9 
  591   593   595   596     9 
  591   593   595   599     9 
  594   593   595   596     9 
  594   593   595   599     9 
  593   595   596   597     9 
  593   595   596   598     9 
  599   595   596   597     9 
  599   595   596   598     9 
  593   595   599   600     9 
  596   595   599   600     9 
  595   599   600   586     9 
  595   599   600   590     9 
  581   601   603   584     9 
  581   601   603   604     9 
  581   601   603   605     9 
  602   601   603   584     9 
  602   601   603   604     9 
  602   601   603   605     9 
  606   601   603   584     9 
  606   601   603   604     9 
  606   601   603   605     9 
  581   601   606   607     9 
  602   601   606   607     9 
  603   601   606   607     9 
  601   606   607   608     9 
  601   606   607   609     9 
  601   606   607   610     9 
  606   607   610   611     9 
  608   607   610   611     9 
  609   607   610   611     9 
  607   610   611   612     9 
  607   610   611   613     9 
  607   610   611   614     9 
  610   611   614   615     9 
  610   611   614   616     9 
  610   611   614   634     9 
  612   611   614   615     9 
  612   611   614   616     9 
  612   611   614   634     9 
  613   611   614   615     9 
  613   611   614   616     9 
  613   611   614   634     9 
  611   614   616   617     9 
  615   614   616   617     9 
  634   614   616   617     9 
  611   614   634   635     9 
  611   614   634   636     9 
  611   614   634   639     9 
  615   614   634   635     9 
  615   614   634   636     9 
  615   614   634   639     9 
  616   614   634   635     9 
  616   614   634   636     9 
  616   614   634   639     9 
  614   616   617   618     9 
  614   616   617   619     9 
  614   616   617   636     9 
  616   617   619   620     9 
  616   617   619   633     9 
  618   617   619   620     9 
  618   617   619   633     9 
  636   617   619   620     9 
  636   617   619   633     9 
  616   617   636   634     9 
  616   617   636   637     9 
  616   617   636   638     9 
  618   617   636   634     9 
  618   617   636   637     9 
  618   617   636   638     9 
  619   617   636   634     9 
  619   617   636   637     9 
  619   617   636   638     9 
  617   619   620   621     9 
  617   619   620   622     9 
  633   619   620   621     9 
  633   619   620   622     9 
  617   619   633   623     9 
  617   619   633   632     9 
  620   619   633   623     9 
  620   619   633   632     9 
  619   620   622   623     9 
  621   620   622   623     9 
  620   622   623   624     9 
  620   622   623   633     9 
  622   623   624   625     9 
  622   623   624   626     9 
  633   623   624   625     9 
  633   623   624   626     9 
  622   623   633   619     9 
  622   623   633   632     9 
  624   623   633   619     9 
  624   623   633   632     9 
  623   624   626   627     9 
  623   624   626   628     9 
  625   624   626   627     9 
  625   624   626   628     9 
  624   626   628   629     9 
  624   626   628   632     9 
  627   626   628   629     9 
  627   626   628   632     9 
  626   628   629   630     9 
  626   628   629   631     9 
  632   628   629   630     9 
  632   628   629   631     9 
  626   628   632   633     9 
  629   628   632   633     9 
  628   632   633   619     9 
  628   632   633   623     9 
  614   634   636   617     9 
  614   634   636   637     9 
  614   634   636   638     9 
  635   634   636   617     9 
  635   634   636   637     9 
  635   634   636   638     9 
  639   634   636   617     9 
  639   634   636   637     9 
  639   634   636   638     9 
  614   634   639   640     9 
  635   634   639   640     9 
  636   634   639   640     9 
  634   639   640   641     9 
  634   639   640   642     9 
  634   639   640   643     9 
  639   640   643   644     9 
  641   640   643   644     9 
  642   640   643   644     9 
  640   643   644   645     9 
  640   643   644   646     9 
  640   643   644   647     9 
  643   644   647   648     9 
  643   644   647   649     9 
  643   644   647   667     9 
  645   644   647   648     9 
  645   644   647   649     9 
  645   644   647   667     9 
  646   644   647   648     9 
  646   644   647   649     9 
  646   644   647   667     9 
  644   647   649   650     9 
  648   647   649   650     9 
  667   647   649   650     9 
  644   647   667   668     9 
  644   647   667   669     9 
  644   647   667   672     9 
  648   647   667   668     9 
  648   647   667   669     9 
  648   647   667   672     9 
  649   647   667   668     9 
  649   647   667   669     9 
  649   647   667   672     9 
  647   649   650   651     9 
  647   649   650   652     9 
  647   649   650   669     9 
  649   650   652   653     9 
  649   650   652   666     9 
  651   650   652   653     9 
  651   650   652   666     9 
  669   650   652   653     9 
  669   650   652   666     9 
  649   650   669   667     9 
  649   650   669   670     9 
  649   650   669   671     9 
  651   650   669   667     9 
  651   650   669   670     9 
  651   650   669   671     9 
  652   650   669   667     9 
  652   650   669   670     9 
  652   650   669   671     9 
  650   652   653   654     9 
  650   652   653   655     9 
  666   652   653   654     9 
  666   652   653   655     9 
  650   652   666   656     9 
  650   652   666   665     9 
  653   652   666   656     9 
  653   652   666   665     9 
  652   653   655   656     9 
  654   653   655   656     9 
  653   655   656   657     9 
  653   655   656   666     9 
  655   656   657   658     9 
  655   656   657   659     9 
  666   656   657   658     9 
  666   656   657   659     9 
  655   656   666   652     9 
  655   656   666   665     9 
  657   656   666   652     9 
  657   656   666   665     9 
  656   657   659   660     9 
  656   657   659   661     9 
  658   657   659   660     9 
  658   657   659   661     9 
  657   659   661   662     9 
  657   659   661   665     9 
  660   659   661   662     9 
  660   659   661   665     9 
  659   661   662   663     9 
  659   661   662   664     9 
  665   661   662   663     9 
  665   661   662   664     9 
  659   661   665   666     9 
  662   661   665   666     9 
  661   665   666   652     9 
  661   665   666   656     9 
  647   667   669   650     9 
  647   667   669   670     9 
  647   667   669   671     9 
  668   667   669   650     9 
  668   667   669   670     9 
  668   667   669   671     9 
  672   667   669   650     9 
  672   667   669   670     9 
  672   667   669   671     9 
  647   667   672   673     9 
  668   667   672   673     9 
  669   667   672   673     9 
  667   672   673   674     9 
  667   672   673   675     9 
  667   672   673   676     9 
  672   673   676   677     9 
  674   673   676   677     9 
  675   673   676   677     9 
  673   676   677   678     9 
  673   676   677   679     9 
  673   676   677   680     9 
  676   677   680   681     9 
  676   677   680   682     9 
  676   677   680   700     9 
  678   677   680   681     9 
  678   677   680   682     9 
  678   677   680   700     9 
  679   677   680   681     9 
  679   677   680   682     9 
  679   677   680   700     9 
  677   680   682   683     9 
  681   680   682   683     9 
  700   680   682   683     9 
  677   680   700   701     9 
  677   680   700   702     9 
  677   680   700   705     9 
  681   680   700   701     9 
  681   680   700   702     9 
  681   680   700   705     9 
  682   680   700   701     9 
  682   680   700   702     9 
  682   680   700   705     9 
  680   682   683   684     9 
  680   682   683   685     9 
  680   682   683   702     9 
  682   683   685   686     9 
  682   683   685   699     9 
  684   683   685   686     9 
  684   683   685   699     9 
  702   683   685   686     9 
  702   683   685   699     9 
  682   683   702   700     9 
  682   683   702   703     9 
  682   683   702   704     9 
  684   683   702   700     9 
  684   683   702   703     9 
  684   683   702   704     9 
  685   683   702   700     9 
  685   683   702   703     9 
  685   683   702   704     9 
  683   685   686   687     9 
  683   685   686   688     9 
  699   685   686   687     9 
  699   685   686   688     9 
  683   685   699   689     9 
  683   685   699   698     9 
  686   685   699   689     9 
  686   685   699   698     9 
  685   686   688   689     9 
  687   686   688   689     9 
  686   688   689   690     9 
  686   688   689   699     9 
  688   689   690   691     9 
  688   689   690   692     9 
  699   689   690   691     9 
  699   689   690   692     9 
  688   689   699   685     9 
  688   689   699   698     9 
  690   689   699   685     9 
  690   689   699   698     9 
  689   690   692   693     9 
  689   690   692   694     9 
  691   690   692   693     9 
  691   690   692   694     9 
  690   692   694   695     9 
  690   692   694   698     9 
  693   692   694   695     9 
  693   692   694   698     9 
  692   694   695   696     9 
  692   694   695   697     9 
  698   694   695   696     9 
  698   694   695   697     9 
  692   694   698   699     9 
  695   694   698   699     9 
  694   698   699   685     9 
  694   698   699   689     9 
  680   700   702   683     9 
  680   700   702   703     9 
  680   700   702   704     9 
  701   700   702   683     9 
  701   700   702   703     9 
  701   700   702   704     9 
  705   700   702   683     9 
  705   700   702   703     9 
  705   700   702   704     9 
  680   700   705   706     9 
  701   700   705   706     9 
  702   700   705   706     9 
  700   705   706   707     9 
  700   705   706   708     9 
  700   705   706   709     9 
  705   706   709   710     9 
  707   706   709   710     9 
  708   706   709   710     9 
  706   709   710   711     9 
  706   709   710   712     9 
  706   709   710   713     9 
  709   710   713   714     9 
  709   710   713   715     9 
  709   710   713   730     9 
  711   710   713   714     9 
  711   710   713   715     9 
  711   710   713   730     9 
  712   710   713   714     9 
  712   710   713   715     9 
  712   710   713   730     9 
  710   713   715   716     9 
  714   713   715   716     9 
  730   713   715   716     9 
  710   713   730   731     9 
  710   713   730   732     9 
  710   713   730   735     9 
  714   713   730   731     9 
  714   713   730   732     9 
  714   713   730   735     9 
  715   713   730   731     9 
  715   713   730   732     9 
  715   713   730   735     9 
  713   715   716   717     9 
  713   715   716   718     9 
  713   715   716   732     9 
  715   716   718   719     9 
  715   716   718   728     9 
  717   716   718   719     9 
  717   716   718   728     9 
  732   716   718   719     9 
  732   716   718   728     9 
  715   716   732   730     9 
  715   716   732   733     9 
  715   716   732   734     9 
  717   716   732   730     9 
  717   716   732   733     9 
  717   716   732   734     9 
  718   716   732   730     9 
  718   716   732   733     9 
  718   716   732   734     9 
  716   718   719   720     9 
  716   718   719   721     9 
  728   718   719   720     9 
  728   718   719   721     9 
  716   718   728   727     9 
  716   718   728   729     9 
  719   718   728   727     9 
  719   718   728   729     9 
  718   719   721   722     9 
  718   719   721   723     9 
  720   719   721   722     9 
  720   719   721   723     9 
  719   721   723   724     9 
  719   721   723   727     9 
  722   721   723   724     9 
  722   721   723   727     9 
  721   723   724   725     9 
  721   723   724   726     9 
  727   723   724   725     9 
  727   723   724   726     9 
  721   723   727   728     9 
  724   723   727   728     9 
  723   727   728   718     9 
  723   727   728   729     9 
  713   730   732   716     9 
  713   730   732   733     9 
  713   730   732   734     9 
  731   730   732   716     9 
  731   730   732   733     9 
  731   730   732   734     9 
  735   730   732   716     9 
  735   730   732   733     9 
  735   730   732   734     9 
  713   730   735   736     9 
  731   730   735   736     9 
  732   730   735   736     9 
  730   735   736   737     9 
  730   735   736   738     9 
  730   735   736   739     9 
  735   736   739   740     9 
  737   736   739   740     9 
  738   736   739   740     9 
  736   739   740   741     9 
  736   739   740   742     9 
  736   739   740   743     9 
  739   740   743   744     9 
  739   740   743   745     9 
  739   740   743   760     9 
  741   740   743   744     9 
  741   740   743   745     9 
  741   740   743   760     9 
  742   740   743   744     9 
  742   740   743   745     9 
  742   740   743   760     9 
  740   743   745   746     9 
  744   743   745   746     9 
  760   743   745   746     9 
  740   743   760   761     9 
  740   743   760   762     9 
  740   743   760   765     9 
  744   743   760   761     9 
  744   743   760   762     9 
  744   743   760   765     9 
  745   743   760   761     9 
  745   743   760   762     9 
  745   743   760   765     9 
  743   745   746   747     9 
  743   745   746   748     9 
  743   745   746   762     9 
  745   746   748   749     9 
  745   746   748   758     9 
  747   746   748   749     9 
  747   746   748   758     9 
  762   746   748   749     9 
  762   746   748   758     9 
  745   746   762   760     9 
  745   746   762   763     9 
  745   746   762   764     9 
  747   746   762   760     9 
  747   746   762   763     9 
  747   746   762   764     9 
  748   746   762   760     9 
  748   746   762   763     9 
  748   746   762   764     9 
  746   748   749   750     9 
  746   748   749   751     9 
  758   748   749   750     9 
  758   748   749   751     9 
  746   748   758   757     9 
  746   748   758   759     9 
  749   748   758   757     9 
  749   748   758   759     9 
  748   749   751   752     9 
  748   749   751   753     9 
  750   749   751   752     9 
  750   749   751   753     9 
  749   751   753   754     9 
  749   751   753   757     9 
  752   751   753   754     9 
  752   751   753   757     9 
  751   753   754   755     9 
  751   753   754   756     9 
  757   753   754   755     9 
  757   753   754   756     9 
  751   753   757   758     9 
  754   753   757   758     9 
  753   757   758   748     9 
  753   757   758   759     9 
  743   760   762   746     9 
  743   760   762   763     9 
  743   760   762   764     9 
  761   760   762   746     9 
  761   760   762   763     9 
  761   760   762   764     9 
  765   760   762   746     9 
  765   760   762   763     9 
  765   760   762   764     9 
  743   760   765   766     9 
  761   760   765   766     9 
  762   760   765   766     9 
  760   765   766   767     9 
  760   765   766   768     9 
  760   765   766   769     9 
  765   766   769   770     9 
  767   766   769   770     9 
  768   766   769   770     9 
  766   769   770   771     9 
  766   769   770   772     9 
  766   769   770   773     9 
  769   770   773   774     9 
  769   770   773   775     9 
  769   770   773   790     9 
  771   770   773   774     9 
  771   770   773   775     9 
  771   770   773   790     9 
  772   770   773   774     9 
  772   770   773   775     9 
  772   770   773   790     9 
  770   773   775   776     9 
  774   773   775   776     9 
  790   773   775   776     9 
  770   773   790   791     9 
  770   773   790   792     9 
  770   773   790   795     9 
  774   773   790   791     9 
  774   773   790   792     9 
  774   773   790   795     9 
  775   773   790   791     9 
  775   773   790   792     9 
  775   773   790   795     9 
  773   775   776   777     9 
  773   775   776   778     9 
  773   775   776   792     9 
  775   776   778   779     9 
  775   776   778   788     9 
  777   776   778   779     9 
  777   776   778   788     9 
  792   776   778   779     9 
  792   776   778   788     9 
  775   776   792   790     9 
  775   776   792   793     9 
  775   776   792   794     9 
  777   776   792   790     9 
  777   776   792   793     9 
  777   776   792   794     9 
  778   776   792   790     9 
  778   776   792   793     9 
  778   776   792   794     9 
  776   778   779   780     9 
  776   778   779   781     9 
  788   778   779   780     9 
  788   778   779   781     9 
  776   778   788   787     9 
  776   778   788   789     9 
  779   778   788   787     9 
  779   778   788   789     9 
  778   779   781   782     9 
  778   779   781   783     9 
  780   779   781   782     9 
  780   779   781   783     9 
  779   781   783   784     9 
  779   781   783   787     9 
  782   781   783   784     9 
  782   781   783   787     9 
  781   783   784   785     9 
  781   783   784   786     9 
  787   783   784   785     9 
  787   783   784   786     9 
  781   783   787   788     9 
  784   783   787   788     9 
  783   787   788   778     9 
  783   787   788   789     9 
  773   790   792   776     9 
  773   790   792   793     9 
  773   790   792   794     9 
  791   790   792   776     9 
  791   790   792   793     9 
  791   790   792   794     9 
  795   790   792   776     9 
  795   790   792   793     9 
  795   790   792   794     9 
  773   790   795   796     9 
  791   790   795   796     9 
  792   790   795   796     9 
  790   795   796   797     9 
  790   795   796   798     9 
  790   795   796   799     9 
  795   796   799   800     9 
  797   796   799   800     9 
  798   796   799   800     9 
  796   799   800   801     9 
  796   799   800   802     9 
  796   799   800   803     9 
  799   800   803   804     9 
  799   800   803   805     9 
  799   800   803   822     9 
  801   800   803   804     9 
  801   800   803   805     9 
  801   800   803   822     9 
  802   800   803   804     9 
  802   800   803   805     9 
  802   800   803   822     9 
  800   803   805   806     9 
  804   803   805   806     9 
  822   803   805   806     9 
  800   803   822   823     9 
  800   803   822   824     9 
  800   803   822   827     9 
  804   803   822   823     9 
  804   803   822   824     9 
  804   803   822   827     9 
  805   803   822   823     9 
  805   803   822   824     9 
  805   803   822   827     9 
  803   805   806   807     9 
  803   805   806   808     9 
  803   805   806   824     9 
  805   806   808   809     9 
  805   806   808   821     9 
  807   806   808   809     9 
  807   806   808   821     9 
  824   806   808   809     9 
  824   806   808   821     9 
  805   806   824   822     9 
  805   806   824   825     9 
  805   806   824   826     9 
  807   806   824   822     9 
  807   806   824   825     9 
  807   806   824   826     9 
  808   806   824   822     9 
  808   806   824   825     9 
  808   806   824   826     9 
  806   808   809   810     9 
  806   808   809   811     9 
  821   808   809   810     9 
  821   808   809   811     9 
  806   808   821   812     9 
  806   808   821   820     9 
  809   808   821   812     9 
  809   808   821   820     9 
  808   809   811   812     9 
  810   809   811   812     9 
  809   811   812   813     9 
  809   811   812   821     9 
  811   812   813   814     9 
  811   812   813   817     9 
  821   812   813   814     9 
  821   812   813   817     9 
  811   812   821   808     9 
  811   812   821   820     9 
  813   812   821   808     9 
  813   812   821   820     9 
  812   813   814   815     9 
  812   813   814   816     9 
  817   813   814   815     9 
  817   813   814   816     9 
  812   813   817   818     9 
  814   813   817   818     9 
  813   817   818   819     9 
  813   817   818   820     9 
  817   818   820   821     9 
  819   818   820   821     9 
  818   820   821   808     9 
  818   820   821   812     9 
  803   822   824   806     9 
  803   822   824   825     9 
  803   822   824   826     9 
  823   822   824   806     9 
  823   822   824   825     9 
  823   822   824   826     9 
  827   822   824   806     9 
  827   822   824   825     9 
  827   822   824   826     9 
  803   822   827   828     9 
  823   822   827   828     9 
  824   822   827   828     9 
  822   827   828   829     9 
  822   827   828   830     9 
  822   827   828   831     9 
  827   828   831   832     9 
  829   828   831   832     9 
  830   828   831   832     9 
  828   831   832   833     9 
  828   831   832   834     9 
  828   831   832   835     9 
  831   832   835   836     9 
  831   832   835   837     9 
  831   832   835   855     9 
  833   832   835   836     9 
  833   832   835   837     9 
  833   832   835   855     9 
  834   832   835   836     9 
  834   832   835   837     9 
  834   832   835   855     9 
  832   835   837   838     9 
  836   835   837   838     9 
  855   835   837   838     9 
  832   835   855   856     9 
  832   835   855   857     9 
  832   835   855   860     9 
  836   835   855   856     9 
  836   835   855   857     9 
  836   835   855   860     9 
  837   835   855   856     9 
  837   835   855   857     9 
  837   835   855   860     9 
  835   837   838   839     9 
  835   837   838   840     9 
  835   837   838   857     9 
  837   838   840   841     9 
  837   838   840   854     9 
  839   838   840   841     9 
  839   838   840   854     9 
  857   838   840   841     9 
  857   838   840   854     9 
  837   838   857   855     9 
  837   838   857   858     9 
  837   838   857   859     9 
  839   838   857   855     9 
  839   838   857   858     9 
  839   838   857   859     9 
  840   838   857   855     9 
  840   838   857   858     9 
  840   838   857   859     9 
  838   840   841   842     9 
  838   840   841   843     9 
  854   840   841   842     9 
  854   840   841   843     9 
  838   840   854   844     9 
  838   840   854   853     9 
  841   840   854   844     9 
  841   840   854   853     9 
  840   841   843   844     9 
  842   841   843   844     9 
  841   843   844   845     9 
  841   843   844   854     9 
  843   844   845   846     9 
  843   844   845   847     9 
  854   844   845   846     9 
  854   844   845   847     9 
  843   844   854   840     9 
  843   844   854   853     9 
  845   844   854   840     9 
  845   844   854   853     9 
  844   845   847   848     9 
  844   845   847   849     9 
  846   845   847   848     9 
  846   845   847   849     9 
  845   847   849   850     9 
  845   847   849   853     9 
  848   847   849   850     9 
  848   847   849   853     9 
  847   849   850   851     9 
  847   849   850   852     9 
  853   849   850   851     9 
  853   849   850   852     9 
  847   849   853   854     9 
  850   849   853   854     9 
  849   853   854   840     9 
  849   853   854   844     9 
  835   855   857   838     9 
  835   855   857   858     9 
  835   855   857   859     9 
  856   855   857   838     9 
  856   855   857   858     9 
  856   855   857   859     9 
  860   855   857   838     9 
  860   855   857   858     9 
  860   855   857   859     9 
  835   855   860   861     9 
  856   855   860   861     9 
  857   855   860   861     9 
  855   860   861   862     9 
  855   860   861   863     9 
  855   860   861   864     9 
  860   861   864   865     9 
  862   861   864   865     9 
  863   861   864   865     9 
  861   864   865   866     9 
  861   864   865   867     9 
  861   864   865   868     9 
  864   865   868   869     9 
  864   865   868   870     9 
  864   865   868   888     9 
  866   865   868   869     9 
  866   865   868   870     9 
  866   865   868   888     9 
  867   865   868   869     9 
  867   865   868   870     9 
  867   865   868   888     9 
  865   868   870   871     9 
  869   868   870   871     9 
  888   868   870   871     9 
  865   868   888   889     9 
  865   868   888   890     9 
  865   868   888   893     9 
  869   868   888   889     9 
  869   868   888   890     9 
  869   868   888   893     9 
  870   868   888   889     9 
  870   868   888   890     9 
  870   868   888   893     9 
  868   870   871   872     9 
  868   870   871   873     9 
  868   870   871   890     9 
  870   871   873   874     9 
  870   871   873   887     9 
  872   871   873   874     9 
  872   871   873   887     9 
  890   871   873   874     9 
  890   871   873   887     9 
  870   871   890   888     9 
  870   871   890   891     9 
  870   871   890   892     9 
  872   871   890   888     9 
  872   871   890   891     9 
  872   871   890   892     9 
  873   871   890   888     9 
  873   871   890   891     9 
  873   871   890   892     9 
  871   873   874   875     9 
  871   873   874   876     9 
  887   873   874   875     9 
  887   873   874   876     9 
  871   873   887   877     9 
  871   873   887   886     9 
  874   873   887   877     9 
  874   873   887   886     9 
  873   874   876   877     9 
  875   874   876   877     9 
  874   876   877   878     9 
  874   876   877   887     9 
  876   877   878   879     9 
  876   877   878   880     9 
  887   877   878   879     9 
  887   877   878   880     9 
  876   877   887   873     9 
  876   877   887   886     9 
  878   877   887   873     9 
  878   877   887   886     9 
  877   878   880   881     9 
  877   878   880   882     9 
  879   878   880   881     9 
  879   878   880   882     9 
  878   880   882   883     9 
  878   880   882   886     9 
  881   880   882   883     9 
  881   880   882   886     9 
  880   882   883   884     9 
  880   882   883   885     9 
  886   882   883   884     9 
  886   882   883   885     9 
  880   882   886   887     9 
  883   882   886   887     9 
  882   886   887   873     9 
  882   886   887   877     9 
  868   888   890   871     9 
  868   888   890   891     9 
  868   888   890   892     9 
  889   888   890   871     9 
  889   888   890   891     9 
  889   888   890   892     9 
  893   888   890   871     9 
  893   888   890   891     9 
  893   888   890   892     9 
  868   888   893   894     9 
  889   888   893   894     9 
  890   888   893   894     9 
  888   893   894   895     9 
  888   893   894   896     9 
  888   893   894   897     9 
  893   894   897   898     9 
  895   894   897   898     9 
  896   894   897   898     9 
  894   897   898   899     9 
  894   897   898   900     9 
  894   897   898   901     9 
  897   898   901   902     9 
  897   898   901   903     9 
  897   898   901   920     9 
  899   898   901   902     9 
  899   898   901   903     9 
  899   898   901   920     9 
  900   898   901   902     9 
  900   898   901   903     9 
  900   898   901   920     9 
  898   901   903   904     9 
  902   901   903   904     9 
  920   901   903   904     9 
  898   901   920   921     9 
  898   901   920   922     9 
  898   901   920   925     9 
  902   901   920   921     9 
  902   901   920   922     9 
  902   901   920   925     9 
  903   901   920   921     9 
  903   901   920   922     9 
  903   901   920   925     9 
  901   903   904   905     9 
  901   903   904   906     9 
  901   903   904   922     9 
  903   904   906   907     9 
  903   904   906   919     9 
  905   904   906   907     9 
  905   904   906   919     9 
  922   904   906   907     9 
  922   904   906   919     9 
  903   904   922   920     9 
  903   904   922   923     9 
  903   904   922   924     9 
  905   904   922   920     9 
  905   904   922   923     9 
  905   904   922   924     9 
  906   904   922   920     9 
  906   904   922   923     9 
  906   904   922   924     9 
  904   906   907   908     9 
  904   906   907   909     9 
  919   906   907   908     9 
  919   906   907   909     9 
  904   906   919   910     9 
  904   906   919   918     9 
  907   906   919   910     9 
  907   906   919   918     9 
  906   907   909   910     9 
  908   907   909   910     9 
  907   909   910   911     9 
  907   909   910   919     9 
  909   910   911   912     9 
  909   910   911   915     9 
  919   910   911   912     9 
  919   910   911   915     9 
  909   910   919   906     9 
  909   910   919   918     9 
  911   910   919   906     9 
  911   910   919   918     9 
  910   911   912   913     9 
  910   911   912   914     9 
  915   911   912   913     9 
  915   911   912   914     9 
  910   911   915   916     9 
  912   911   915   916     9 
  911   915   916   917     9 
  911   915   916   918     9 
  915   916   918   919     9 
  917   916   918   919     9 
  916   918   919   906     9 
  916   918   919   910     9 
  901   920   922   904     9 
  901   920   922   923     9 
  901   920   922   924     9 
  921   920   922   904     9 
  921   920   922   923     9 
  921   920   922   924     9 
  925   920   922   904     9 
  925   920   922   923     9 
  925   920   922   924     9 
  901   920   925   926     9 
  921   920   925   926     9 
  922   920   925   926     9 
  920   925   926   927     9 
  920   925   926   928     9 
  920   925   926   929     9 
  925   926   929   930     9 
  927   926   929   930     9 
  928   926   929   930     9 
  926   929   930   931     9 
  926   929   930   932     9 
  926   929   930   933     9 
  929   930   933   934     9 
  929   930   933   935     9 
  929   930   933   953     9 
  931   930   933   934     9 
  931   930   933   935     9 
  931   930   933   953     9 
  932   930   933   934     9 
  932   930   933   935     9 
  932   930   933   953     9 
  930   933   935   936     9 
  934   933   935   936     9 
  953   933   935   936     9 
  930   933   953   954     9 
  930   933   953   955     9 
  930   933   953   958     9 
  934   933   953   954     9 
  934   933   953   955     9 
  934   933   953   958     9 
  935   933   953   954     9 
  935   933   953   955     9 
  935   933   953   958     9 
  933   935   936   937     9 
  933   935   936   938     9 
  933   935   936   955     9 
  935   936   938   939     9 
  935   936   938   952     9 
  937   936   938   939     9 
  937   936   938   952     9 
  955   936   938   939     9 
  955   936   938   952     9 
  935   936   955   953     9 
  935   936   955   956     9 
  935   936   955   957     9 
  937   936   955   953     9 
  937   936   955   956     9 
  937   936   955   957     9 
  938   936   955   953     9 
  938   936   955   956     9 
  938   936   955   957     9 
  936   938   939   940     9 
  936   938   939   941     9 
  952   938   939   940     9 
  952   938   939   941     9 
  936   938   952   942     9 
  936   938   952   951     9 
  939   938   952   942     9 
  939   938   952   951     9 
  938   939   941   942     9 
  940   939   941   942     9 
  939   941   942   943     9 
  939   941   942   952     9 
  941   942   943   944     9 
  941   942   943   945     9 
  952   942   943   944     9 
  952   942   943   945     9 
  941   942   952   938     9 
  941   942   952   951     9 
  943   942   952   938     9 
  943   942   952   951     9 
  942   943   945   946     9 
  942   943   945   947     9 
  944   943   945   946     9 
  944   943   945   947     9 
  943   945   947   948     9 
  943   945   947   951     9 
  946   945   947   948     9 
  946   945   947   951     9 
  945   947   948   949     9 
  945   947   948   950     9 
  951   947   948   949     9 
  951   947   948   950     9 
  945   947   951   952     9 
  948   947   951   952     9 
  947   951   952   938     9 
  947   951   952   942     9 
  933   953   955   936     9 
  933   953   955   956     9 
  933   953   955   957     9 
  954   953   955   936     9 
  954   953   955   956     9 
  954   953   955   957     9 
  958   953   955   936     9 
  958   953   955   956     9 
  958   953   955   957     9 
  933   953   958   959     9 
  954   953   958   959     9 
  955   953   958   959     9 
  953   958   959   960     9 
  953   958   959   961     9 
  953   958   959   962     9 
  958   959   962   963     9 
  960   959   962   963     9 
  961   959   962   963     9 
  959   962   963   964     9 
  959   962   963   965     9 
  959   962   963   966     9 
  962   963   966   967     9 
  962   963   966   968     9 
  962   963   966   986     9 
  964   963   966   967     9 
  964   963   966   968     9 
  964   963   966   986     9 
  965   963   966   967     9 
  965   963   966   968     9 
  965   963   966   986     9 
  963   966   968   969     9 
  967   966   968   969     9 
  986   966   968   969     9 
  963   966   986   987     9 
  963   966   986   988     9 
  963   966   986   991     9 
  967   966   986   987     9 
  967   966   986   988     9 
  967   966   986   991     9 
  968   966   986   987     9 
  968   966   986   988     9 
  968   966   986   991     9 
  966   968   969   970     9 
  966   968   969   971     9 
  966   968   969   988     9 
  968   969   971   972     9 
  968   969   971   985     9 
  970   969   971   972     9 
  970   969   971   985     9 
  988   969   971   972     9 
  988   969   971   985     9 
  968   969   988   986     9 
  968   969   988   989     9 
  968   969   988   990     9 
  970   969   988   986     9 
  970   969   988   989     9 
  970   969   988   990     9 
  971   969   988   986     9 
  971   969   988   989     9 
  971   969   988   990     9 
  969   971   972   973     9 
  969   971   972   974     9 
  985   971   972   973     9 
  985   971   972   974     9 
  969   971   985   975     9 
  969   971   985   984     9 
  972   971   985   975     9 
  972   971   985   984     9 
  971   972   974   975     9 
  973   972   974   975     9 
  972   974   975   976     9 
  972   974   975   985     9 
  974   975   976   977     9 
  974   975   976   978     9 
  985   975   976   977     9 
  985   975   976   978     9 
  974   975   985   971     9 
  974   975   985   984     9 
  976   975   985   971     9 
  976   975   985   984     9 
  975   976   978   979     9 
  975   976   978   980     9 
  977   976   978   979     9 
  977   976   978   980     9 
  976   978   980   981     9 
  976   978   980   984     9 
  979   978   980   981     9 
  979   978   980   984     9 
  978   980   981   982     9 
  978   980   981   983     9 
  984   980   981   982     9 
  984   980   981   983     9 
  978   980   984   985     9 
  981   980   984   985     9 
  980   984   985   971     9 
  980   984   985   975     9 
  966   986   988   969     9 
  966   986   988   989     9 
  966   986   988   990     9 
  987   986   988   969     9 
  987   986   988   989     9 
  987   986   988   990     9 
  991   986   988   969     9 
  991   986   988   989     9 
  991   986   988   990     9 
  966   986   991   992     9 
  987   986   991   992     9 
  988   986   991   992     9 
  986   991   992   993     9 
  986   991   992   994     9 
  986   991   992   995     9 
  991   992   995   996     9 
  993   992   995   996     9 
  994   992   995   996     9 
  992   995   996   997     9 
  992   995   996   998     9 
  992   995   996   999     9 
  995   996   999  1000     9 
  995   996   999  1001     9 
  995   996   999  1019     9 
  997   996   999  1000     9 
  997   996   999  1001     9 
  997   996   999  1019     9 
  998   996   999  1000     9 
  998   996   999  1001     9 
  998   996   999  1019     9 
  996   999  1001  1002     9 
 1000   999  1001  1002     9 
 1019   999  1001  1002     9 
  996   999  1019  1020     9 
  996   999  1019  1021     9 
  996   999  1019  1024     9 
 1000   999  1019  1020     9 
 1000   999  1019  1021     9 
 1000   999  1019  1024     9 
 1001   999  1019  1020     9 
 1001   999  1019  1021     9 
 1001   999  1019  1024     9 
  999  1001  1002  1003     9 
  999  1001  1002  1004     9 
  999  1001  1002  1021     9 
 1001  1002  1004  1005     9 
 1001  1002  1004  1018     9 
 1003  1002  1004  1005     9 
 1003  1002  1004  1018     9 
 1021  1002  1004  1005     9 
 1021  1002  1004  1018     9 
 1001  1002  1021  1019     9 
 1001  1002  1021  1022     9 
 1001  1002  1021  1023     9 
 1003  1002  1021  1019     9 
 1003  1002  1021  1022     9 
 1003  1002  1021  1023     9 
 1004  1002  1021  1019     9 
 1004  1002  1021  1022     9 
 1004  1002  1021  1023     9 
 1002  1004  1005  1006     9 
 1002  1004  1005  1007     9 
 1018  1004  1005  1006     9 
 1018  1004  1005  1007     9 
 1002  1004  1018  1008     9 
 1002  1004  1018  1017     9 
 1005  1004  1018  1008     9 
 1005  1004  1018  1017     9 
 1004  1005  1007  1008     9 
 1006  1005  1007  1008     9 
 1005  1007  1008  1009     9 
 1005  1007  1008  1018     9 
 1007  1008  1009  1010     9 
 1007  1008  1009  1011     9 
 1018  1008  1009  1010     9 
 1018  1008  1009  1011     9 
 1007  1008  1018  1004     9 
 1007  1008  1018  1017     9 
 1009  1008  1018  1004     9 
 1009  1008  1018  1017     9 
 1008  1009  1011  1012     9 
 1008  1009  1011  1013     9 
 1010  1009  1011  1012     9 
 1010  1009  1011  1013     9 
 1009  1011  1013  1014     9 
 1009  1011  1013  1017     9 
 1012  1011  1013  1014     9 
 1012  1011  1013  1017     9 
 1011  1013  1014  1015     9 
 1011  1013  1014  1016     9 
 1017  1013  1014  1015     9 
 1017  1013  1014  1016     9 
 1011  1013  1017  1018     9 
 1014  1013  1017  1018     9 
 1013  1017  1018  1004     9 
 1013  1017  1018  1008     9 
  999  1019  1021  1002     9 
  999  1019  1021  1022     9 
  999  1019  1021  1023     9 
 1020  1019  1021  1002     9 
 1020  1019  1021  1022     9 
 1020  1019  1021  1023     9 
 1024  1019  1021  1002     9 
 1024  1019  1021  1022     9 
 1024  1019  1021  1023     9 
  999  1019  1024  1025     9 
 1020  1019  1024  1025     9 
 1021  1019  1024  1025     9 
 1019  1024  1025  1026     9 
 1019  1024  1025  1027     9 
 1019  1024  1025  1028     9 
 1024  1025  1028  1029     9 
 1026  1025  1028  1029     9 
 1027  1025  1028  1029     9 
 1025  1028  1029  1030     9 
 1025  1028  1029  1031     9 
 1025  1028  1029  1032     9 
 1028  1029  1032  1033     9 
 1028  1029  1032  1034     9 
 1028  1029  1032  1052     9 
 1030  1029  1032  1033     9 
 1030  1029  1032  1034     9 
 1030  1029  1032  1052     9 
 1031  1029  1032  1033     9 
 1031  1029  1032  1034     9 
 1031  1029  1032  1052     9 
 1029  1032  1034  1035     9 
 1033  1032  1034  1035     9 
 1052  1032  1034  1035     9 
 1029  1032  1052  1053     9 
 1029  1032  1052  1054     9 
 1029  1032  1052  1057     9 
 1033  1032  1052  1053     9 
 1033  1032  1052  1054     9 
 1033  1032  1052  1057     9 
 1034  1032  1052  1053     9 
 1034  1032  1052  1054     9 
 1034  1032  1052  1057     9 
 1032  1034  1035  1036     9 
 1032  1034  1035  1037     9 
 1032  1034  1035  1054     9 
 1034  1035  1037  1038     9 
 1034  1035  1037  1051     9 
 1036  1035  1037  1038     9 
 1036  1035  1037  1051     9 
 1054  1035  1037  1038     9 
 1054  1035  1037  1051     9 
 1034  1035  1054  1052     9 
 1034  1035  1054  1055     9 
 1034  1035  1054  1056     9 
 1036  1035  1054  1052     9 
 1036  1035  1054  1055     9 
 1036  1035  1054  1056     9 
 1037  1035  1054  1052     9 
 1037  1035  1054  1055     9 
 1037  1035  1054  1056     9 
 1035  1037  1038  1039     9 
 1035  1037  1038  1040     9 
 1051  1037  1038  1039     9 
 1051  1037  1038  1040     9 
 1035  1037  1051  1041     9 
 1035  1037  1051  1050     9 
 1038  1037  1051  1041     9 
 1038  1037  1051  1050     9 
 1037  1038  1040  1041     9 
 1039  1038  1040  1041     9 
 1038  1040  1041  1042     9 
 1038  1040  1041  1051     9 
 1040  1041  1042  1043     9 
 1040  1041  1042  1044     9 
 1051  1041  1042  1043     9 
 1051  1041  1042  1044     9 
 1040  1041  1051  1037     9 
 1040  1041  1051  1050     9 
 1042  1041  1051  1037     9 
 1042  1041  1051  1050     9 
 1041  1042  1044  1045     9 
 1041  1042  1044  1046     9 
 1043  1042  1044  1045     9 
 1043  1042  1044  1046     9 
 1042  1044  1046  1047     9 
 1042  1044  1046  1050     9 
 1045  1044  1046  1047     9 
 1045  1044  1046  1050     9 
 1044  1046  1047  1048     9 
 1044  1046  1047  1049     9 
 1050  1046  1047  1048     9 
 1050  1046  1047  1049     9 
 1044  1046  1050  1051     9 
 1047  1046  1050  1051     9 
 1046  1050  1051  1037     9 
 1046  1050  1051  1041     9 
 1032  1052  1054  1035     9 
 1032  1052  1054  1055     9 
 1032  1052  1054  1056     9 
 1053  1052  1054  1035     9 
 1053  1052  1054  1055     9 
 1053  1052  1054  1056     9 
 1057  1052  1054  1035     9 
 1057  1052  1054  1055     9 
 1057  1052  1054  1056     9 
 1032  1052  1057  1058     9 
 1053  1052  1057  1058     9 
 1054  1052  1057  1058     9 
 1052  1057  1058  1059     9 
 1052  1057  1058  1060     9 
 1052  1057  1058  1061     9 
 1057  1058  1061  1062     9 
 1059  1058  1061  1062     9 
 1060  1058  1061  1062     9 
 1058  1061  1062  1063     9 
 1058  1061  1062  1064     9 
 1058  1061  1062  1065     9 
 1061  1062  1065  1066     9 
 1061  1062  1065  1067     9 
 1061  1062  1065  1084     9 
 1063  1062  1065  1066     9 
 1063  1062  1065  1067     9 
 1063  1062  1065  1084     9 
 1064  1062  1065  1066     9 
 1064  1062  1065  1067     9 
 1064  1062  1065  1084     9 
 1062  1065  1067  1068     9 
 1066  1065  1067  1068     9 
 1084  1065  1067  1068     9 
 1062  1065  1084  1085     9 
 1062  1065  1084  1086     9 
 1062  1065  1084  1089     9 
 1066  1065  1084  1085     9 
 1066  1065  1084  1086     9 
 1066  1065  1084  1089     9 
 1067  1065  1084  1085     9 
 1067  1065  1084  1086     9 
 1067  1065  1084  1089     9 
 1065  1067  1068  1069     9 
 1065  1067  1068  1070     9 
 1065  1067  1068  1086     9 
 1067  1068  1070  1071     9 
 1067  1068  1070  1082     9 
 1069  1068  1070  1071     9 
 1069  1068  1070  1082     9 
 1086  1068  1070  1071     9 
 1086  1068  1070  1082     9 
 1067  1068  1086  1084     9 
 1067  1068  1086  1087     9 
 1067  1068  1086  1088     9 
 1069  1068  1086  1084     9 
 1069  1068  1086  1087     9 
 1069  1068  1086  1088     9 
 1070  1068  1086  1084     9 
 1070  1068  1086  1087     9 
 1070  1068  1086  1088     9 
 1068  1070  1071  1072     9 
 1068  1070  1071  1073     9 
 1082  1070  1071  1072     9 
 1082  1070  1071  1073     9 
 1068  1070  1082  1080     9 
 1068  1070  1082  1083     9 
 1071  1070  1082  1080     9 
 1071  1070  1082  1083     9 
 1070  1071  1073  1074     9 
 1070  1071  1073  1078     9 
 1072  1071  1073  1074     9 
 1072  1071  1073  1078     9 
 1071  1073  1074  1075     9 
 1071  1073  1074  1076     9 
 1071  1073  1074  1077     9 
 1078  1073  1074  1075     9 
 1078  1073  1074  1076     9 
 1078  1073  1074  1077     9 
 1071  1073  1078  1079     9 
 1071  1073  1078  1080     9 
 1074  1073  1078  1079     9 
 1074  1073  1078  1080     9 
 1073  1078  1080  1081     9 
 1073  1078  1080  1082     9 
 1079  1078  1080  1081     9 
 1079  1078  1080  1082     9 
 1078  1080  1082  1070     9 
 1078  1080  1082  1083     9 
 1081  1080  1082  1070     9 
 1081  1080  1082  1083     9 
 1065  1084  1086  1068     9 
 1065  1084  1086  1087     9 
 1065  1084  1086  1088     9 
 1085  1084  1086  1068     9 
 1085  1084  1086  1087     9 
 1085  1084  1086  1088     9 
 1089  1084  1086  1068     9 
 1089  1084  1086  1087     9 
 1089  1084  1086  1088     9 
 1065  1084  1089  1090     9 
 1085  1084  1089  1090     9 
 1086  1084  1089  1090     9 
 1084  1089  1090  1091     9 
 1084  1089  1090  1092     9 
 1084  1089  1090  1093     9 
 1089  1090  1093  1094     9 
 1091  1090  1093  1094     9 
 1092  1090  1093  1094     9 
 1090  1093  1094  1095     9 
 1090  1093  1094  1096     9 
 1090  1093  1094  1097     9 
 1093  1094  1097  1098     9 
 1093  1094  1097  1099     9 
 1093  1094  1097  1117     9 
 1095  1094  1097  1098     9 
 1095  1094  1097  1099     9 
 1095  1094  1097  1117     9 
 1096  1094  1097  1098     9 
 1096  1094  1097  1099     9 
 1096  1094  1097  1117     9 
 1094  1097  1099  1100     9 
 1098  1097  1099  1100     9 
 1117  1097  1099  1100     9 
 1094  1097  1117  1118     9 
 1094  1097  1117  1119     9 
 1094  1097  1117  1122     9 
 1098  1097  1117  1118     9 
 1098  1097  1117  1119     9 
 1098  1097  1117  1122     9 
 1099  1097  1117  1118     9 
 1099  1097  1117  1119     9 
 1099  1097  1117  1122     9 
 1097  1099  1100  1101     9 
 1097  1099  1100  1102     9 
 1097  1099  1100  1119     9 
 1099  1100  1102  1103     9 
 1099  1100  1102  1116     9 
 1101  1100  1102  1103     9 
 1101  1100  1102  1116     9 
 1119  1100  1102  1103     9 
 1119  1100  1102  1116     9 
 1099  1100  1119  1117     9 
 1099  1100  1119  1120     9 
 1099  1100  1119  1121     9 
 1101  1100  1119  1117     9 
 1101  1100  1119  1120     9 
 1101  1100  1119  1121     9 
 1102  1100  1119  1117     9 
 1102  1100  1119  1120     9 
 1102  1100  1119  1121     9 
 1100  1102  1103  1104     9 
 1100  1102  1103  1105     9 
 1116  1102  1103  1104     9 
 1116  1102  1103  1105     9 
 1100  1102  1116  1106     9 
 1100  1102  1116  1115     9 
 1103  1102  1116  1106     9 
 1103  1102  1116  1115     9 
 1102  1103  1105  1106     9 
 1104  1103  1105  1106     9 
 1103  1105  1106  1107     9 
 1103  1105  1106  1116     9 
 1105  1106  1107  1108     9 
 1105  1106  1107  1109     9 
 1116  1106  1107  1108     9 
 1116  1106  1107  1109     9 
 1105  1106  1116  1102     9 
 1105  1106  1116  1115     9 
 1107  1106  1116  1102     9 
 1107  1106  1116  1115     9 
 1106  1107  1109  1110     9 
 1106  1107  1109  1111     9 
 1108  1107  1109  1110     9 
 1108  1107  1109  1111     9 
 1107  1109  1111  1112     9 
 1107  1109  1111  1115     9 
 1110  1109  1111  1112     9 
 1110  1109  1111  1115     9 
 1109  1111  1112  1113     9 
 1109  1111  1112  1114     9 
 1115  1111  1112  1113     9 
 1115  1111  1112  1114     9 
 1109  1111  1115  1116     9 
 1112  1111  1115  1116     9 
 1111  1115  1116  1102     9 
 1111  1115  1116  1106     9 
 1097  1117  1119  1100     9 
 1097  1117  1119  1120     9 
 1097  1117  1119  1121     9 
 1118  1117  1119  1100     9 
 1118  1117  1119  1120     9 
 1118  1117  1119  1121     9 
 1122  1117  1119  1100     9 
 1122  1117  1119  1120     9 
 1122  1117  1119  1121     9 
 1097  1117  1122  1123     9 
 1118  1117  1122  1123     9 
 1119  1117  1122  1123     9 
 1117  1122  1123  1124     9 
 1117  1122  1123  1125     9 
 1117  1122  1123  1126     9 
 1122  1123  1126  1127     9 
 1124  1123  1126  1127     9 
 1125  1123  1126  1127     9 
 1123  1126  1127  1128     9 
 1123  1126  1127  1129     9 
 1123  1126  1127  1130     9 
 1126  1127  1130  1131     9 
 1126  1127  1130  1132     9 
 1126  1127  1130  1150     9 
 1128  1127  1130  1131     9 
 1128  1127  1130  1132     9 
 1128  1127  1130  1150     9 
 1129  1127  1130  1131     9 
 1129  1127  1130  1132     9 
 1129  1127  1130  1150     9 
 1127  1130  1132  1133     9 
 1131  1130  1132  1133     9 
 1150  1130  1132  1133     9 
 1127  1130  1150  1151     9 
 1127  1130  1150  1152     9 
 1127  1130  1150  1155     9 
 1131  1130  1150  1151     9 
 1131  1130  1150  1152     9 
 1131  1130  1150  1155     9 
 1132  1130  1150  1151     9 
 1132  1130  1150  1152     9 
 1132  1130  1150  1155     9 
 1130  1132  1133  1134     9 
 1130  1132  1133  1135     9 
 1130  1132  1133  1152     9 
 1132  1133  1135  1136     9 
 1132  1133  1135  1149     9 
 1134  1133  1135  1136     9 
 1134  1133  1135  1149     9 
 1152  1133  1135  1136     9 
 1152  1133  1135  1149     9 
 1132  1133  1152  1150     9 
 1132  1133  1152  1153     9 
 1132  1133  1152  1154     9 
 1134  1133  1152  1150     9 
 1134  1133  1152  1153     9 
 1134  1133  1152  1154     9 
 1135  1133  1152  1150     9 
 1135  1133  1152  1153     9 
 1135  1133  1152  1154     9 
 1133  1135  1136  1137     9 
 1133  1135  1136  1138     9 
 1149  1135  1136  1137     9 
 1149  1135  1136  1138     9 
 1133  1135  1149  1139     9 
 1133  1135  1149  1148     9 
 1136  1135  1149  1139     9 
 1136  1135  1149  1148     9 
 1135  1136  1138  1139     9 
 1137  1136  1138  1139     9 
 1136  1138  1139  1140     9 
 1136  1138  1139  1149     9 
 1138  1139  1140  1141     9 
 1138  1139  1140  1142     9 
 1149  1139  1140  1141     9 
 1149  1139  1140  1142     9 
 1138  1139  1149  1135     9 
 1138  1139  1149  1148     9 
 1140  1139  1149  1135     9 
 1140  1139  1149  1148     9 
 1139  1140  1142  1143     9 
 1139  1140  1142  1144     9 
 1141  1140  1142  1143     9 
 1141  1140  1142  1144     9 
 1140  1142  1144  1145     9 
 1140  1142  1144  1148     9 
 1143  1142  1144  1145     9 
 1143  1142  1144  1148     9 
 1142  1144  1145  1146     9 
 1142  1144  1145  1147     9 
 1148  1144  1145  1146     9 
 1148  1144  1145  1147     9 
 1142  1144  1148  1149     9 
 1145  1144  1148  1149     9 
 1144  1148  1149  1135     9 
 1144  1148  1149  1139     9 
 1130  1150  1152  1133     9 
 1130  1150  1152  1153     9 
 1130  1150  1152  1154     9 
 1151  1150  1152  1133     9 
 1151  1150  1152  1153     9 
 1151  1150  1152  1154     9 
 1155  1150  1152  1133     9 
 1155  1150  1152  1153     9 
 1155  1150  1152  1154     9 
 1130  1150  1155  1156     9 
 1151  1150  1155  1156     9 
 1152  1150  1155  1156     9 
 1150  1155  1156  1157     9 
 1150  1155  1156  1158     9 
 1150  1155  1156  1159     9 
 1155  1156  1159  1160     9 
 1157  1156  1159  1160     9 
 1158  1156  1159  1160     9 
 1156  1159  1160  1161     9 
 1156  1159  1160  1162     9 
 1156  1159  1160  1163     9 
 1159  1160  1163  1164     9 
 1159  1160  1163  1165     9 
 1159  1160  1163  1182     9 
 1161  1160  1163  1164     9 
 1161  1160  1163  1165     9 
 1161  1160  1163  1182     9 
 1162  1160  1163  1164     9 
 1162  1160  1163  1165     9 
 1162  1160  1163  1182     9 
 1160  1163  1165  1166     9 
 1164  1163  1165  1166     9 
 1182  1163  1165  1166     9 
 1160  1163  1182  1183     9 
 1160  1163  1182  1184     9 
 1160  1163  1182  1187     9 
 1164  1163  1182  1183     9 
 1164  1163  1182  1184     9 
 1164  1163  1182  1187     9 
 1165  1163  1182  1183     9 
 1165  1163  1182  1184     9 
 1165  1163  1182  1187     9 
 1163  1165  1166  1167     9 
 1163  1165  1166  1168     9 
 1163  1165  1166  1184     9 
 1165  1166  1168  1169     9 
 1165  1166  1168  1180     9 
 1167  1166  1168  1169     9 
 1167  1166  1168  1180     9 
 1184  1166  1168  1169     9 
 1184  1166  1168  1180     9 
 1165  1166  1184  1182     9 
 1165  1166  1184  1185     9 
 1165  1166  1184  1186     9 
 1167  1166  1184  1182     9 
 1167  1166  1184  1185     9 
 1167  1166  1184  1186     9 
 1168  1166  1184  1182     9 
 1168  1166  1184  1185     9 
 1168  1166  1184  1186     9 
 1166  1168  1169  1170     9 
 1166  1168  1169  1171     9 
 1180  1168  1169  1170     9 
 1180  1168  1169  1171     9 
 1166  1168  1180  1178     9 
 1166  1168  1180  1181     9 
 1169  1168  1180  1178     9 
 1169  1168  1180  1181     9 
 1168  1169  1171  1172     9 
 1168  1169  1171  1176     9 
 1170  1169  1171  1172     9 
 1170  1169  1171  1176     9 
 1169  1171  1172  1173     9 
 1169  1171  1172  1174     9 
 1169  1171  1172  1175     9 
 1176  1171  1172  1173     9 
 1176  1171  1172  1174     9 
 1176  1171  1172  1175     9 
 1169  1171  1176  1177     9 
 1169  1171  1176  1178     9 
 1172  1171  1176  1177     9 
 1172  1171  1176  1178     9 
 1171  1176  1178  1179     9 
 1171  1176  1178  1180     9 
 1177  1176  1178  1179     9 
 1177  1176  1178  1180     9 
 1176  1178  1180  1168     9 
 1176  1178  1180  1181     9 
 1179  1178  1180  1168     9 
 1179  1178  1180  1181     9 
 1163  1182  1184  1166     9 
 1163  1182  1184  1185     9 
 1163  1182  1184  1186     9 
 1183  1182  1184  1166     9 
 1183  1182  1184  1185     9 
 1183  1182  1184  1186     9 
 1187  1182  1184  1166     9 
 1187  1182  1184  1185     9 
 1187  1182  1184  1186     9 
 1163  1182  1187  1188     9 
 1183  1182  1187  1188     9 
 1184  1182  1187  1188     9 
 1182  1187  1188  1189     9 
 1182  1187  1188  1190     9 
 1182  1187  1188  1191     9 
 1187  1188  1191  1192     9 
 1189  1188  1191  1192     9 
 1190  1188  1191  1192     9 
 1188  1191  1192  1193     9 
 1188  1191  1192  1194     9 
 1188  1191  1192  1195     9 
 1191  1192  1195  1196     9 
 1191  1192  1195  1197     9 
 1191  1192  1195  1212     9 
 1193  1192  1195  1196     9 
 1193  1192  1195  1197     9 
 1193  1192  1195  1212     9 
 1194  1192  1195  1196     9 
 1194  1192  1195  1197     9 
 1194  1192  1195  1212     9 
 1192  1195  1197  1198     9 
 1196  1195  1197  1198     9 
 1212  1195  1197  1198     9 
 1192  1195  1212  1213     9 
 1192  1195  1212  1214     9 
 1192  1195  1212  1217     9 
 1196  1195  1212  1213     9 
 1196  1195  1212  1214     9 
 1196  1195  1212  1217     9 
 1197  1195  1212  1213     9 
 1197  1195  1212  1214     9 
 1197  1195  1212  1217     9 
 1195  1197  1198  1199     9 
 1195  1197  1198  1200     9 
 1195  1197  1198  1214     9 
 1197  1198  1200  1201     9 
 1197  1198  1200  1210     9 
 1199  1198  1200  1201     9 
 1199  1198  1200  1210     9 
 1214  1198  1200  1201     9 
 1214  1198  1200  1210     9 
 1197  1198  1214  1212     9 
 1197  1198  1214  1215     9 
 1197  1198  1214  1216     9 
 1199  1198  1214  1212     9 
 1199  1198  1214  1215     9 
 1199  1198  1214  1216     9 
 1200  1198  1214  1212     9 
 1200  1198  1214  1215     9 
 1200  1198  1214  1216     9 
 1198  1200  1201  1202     9 
 1198  1200  1201  1203     9 
 1210  1200  1201  1202     9 
 1210  1200  1201  1203     9 
 1198  1200  1210  1209     9 
 1198  1200  1210  1211     9 
 1201  1200  1210  1209     9 
 1201  1200  1210  1211     9 
 1200  1201  1203  1204     9 
 1200  1201  1203  1205     9 
 1202  1201  1203  1204     9 
 1202  1201  1203  1205     9 
 1201  1203  1205  1206     9 
 1201  1203  1205  1209     9 
 1204  1203  1205  1206     9 
 1204  1203  1205  1209     9 
 1203  1205  1206  1207     9 
 1203  1205  1206  1208     9 
 1209  1205  1206  1207     9 
 1209  1205  1206  1208     9 
 1203  1205  1209  1210     9 
 1206  1205  1209  1210     9 
 1205  1209  1210  1200     9 
 1205  1209  1210  1211     9 
 1195  1212  1214  1198     9 
 1195  1212  1214  1215     9 
 1195  1212  1214  1216     9 
 1213  1212  1214  1198     9 
 1213  1212  1214  1215     9 
 1213  1212  1214  1216     9 
 1217  1212  1214  1198     9 
 1217  1212  1214  1215     9 
 1217  1212  1214  1216     9 
 1195  1212  1217  1218     9 
 1213  1212  1217  1218     9 
 1214  1212  1217  1218     9 
 1212  1217  1218  1219     9 
 1212  1217  1218  1220     9 
 1212  1217  1218  1221     9 
 1217  1218  1221  1222     9 
 1219  1218  1221  1222     9 
 1220  1218  1221  1222     9 
 1218  1221  1222  1223     9 
 1218  1221  1222  1224     9 
 1218  1221  1222  1225     9 
 1221  1222  1225  1226     9 
 1221  1222  1225  1227     9 
 1221  1222  1225  1242     9 
 1223  1222  1225  1226     9 
 1223  1222  1225  1227     9 
 1223  1222  1225  1242     9 
 1224  1222  1225  1226     9 
 1224  1222  1225  1227     9 
 1224  1222  1225  1242     9 
 1222  1225  1227  1228     9 
 1226  1225  1227  1228     9 
 1242  1225  1227  1228     9 
 1222  1225  1242  1243     9 
 1222  1225  1242  1244     9 
 1222  1225  1242  1247     9 
 1226  1225  1242  1243     9 
 1226  1225  1242  1244     9 
 1226  1225  1242  1247     9 
 1227  1225  1242  1243     9 
 1227  1225  1242  1244     9 
 1227  1225  1242  1247     9 
 1225  1227  1228  1229     9 
 1225  1227  1228  1230     9 
 1225  1227  1228  1244     9 
 1227  1228  1230  1231     9 
 1227  1228  1230  1240     9 
 1229  1228  1230  1231     9 
 1229  1228  1230  1240     9 
 1244  1228  1230  1231     9 
 1244  1228  1230  1240     9 
 1227  1228  1244  1242     9 
 1227  1228  1244  1245     9 
 1227  1228  1244  1246     9 
 1229  1228  1244  1242     9 
 1229  1228  1244  1245     9 
 1229  1228  1244  1246     9 
 1230  1228  1244  1242     9 
 1230  1228  1244  1245     9 
 1230  1228  1244  1246     9 
 1228  1230  1231  1232     9 
 1228  1230  1231  1233     9 
 1240  1230  1231  1232     9 
 1240  1230  1231  1233     9 
 1228  1230  1240  1239     9 
 1228  1230  1240  1241     9 
 1231  1230  1240  1239     9 
 1231  1230  1240  1241     9 
 1230  1231  1233  1234     9 
 1230  1231  1233  1235     9 
 1232  1231  1233  1234     9 
 1232  1231  1233  1235     9 
 1231  1233  1235  1236     9 
 1231  1233  1235  1239     9 
 1234  1233  1235  1236     9 
 1234  1233  1235  1239     9 
 1233  1235  1236  1237     9 
 1233  1235  1236  1238     9 
 1239  1235  1236  1237     9 
 1239  1235  1236  1238     9 
 1233  1235  1239  1240     9 
 1236  1235  1239  1240     9 
 1235  1239  1240  1230     9 
 1235  1239  1240  1241     9 
 1225  1242  1244  1228     9 
 1225  1242  1244  1245     9 
 1225  1242  1244  1246     9 
 1243  1242  1244  1228     9 
 1243  1242  1244  1245     9 
 1243  1242  1244  1246     9 
 1247  1242  1244  1228     9 
 1247  1242  1244  1245     9 
 1247  1242  1244  1246     9 
 1225  1242  1247  1248     9 
 1243  1242  1247  1248     9 
 1244  1242  1247  1248     9 
 1242  1247  1248  1249     9 
 1242  1247  1248  1250     9 
 1242  1247  1248  1251     9 
 1247  1248  1251  1252     9 
 1249  1248  1251  1252     9 
 1250  1248  1251  1252     9 
 1248  1251  1252  1253     9 
 1248  1251  1252  1254     9 
 1248  1251  1252  1255     9 
 1251  1252  1255  1256     9 
 1251  1252  1255  1257     9 
 1251  1252  1255  1275     9 
 1253  1252  1255  1256     9 
 1253  1252  1255  1257     9 
 1253  1252  1255  1275     9 
 1254  1252  1255  1256     9 
 1254  1252  1255  1257     9 
 1254  1252  1255  1275     9 
 1252  1255  1257  1258     9 
 1256  1255  1257  1258     9 
 1275  1255  1257  1258     9 
 1252  1255  1275  1276     9 
 1252  1255  1275  1277     9 
 1252  1255  1275  1280     9 
 1256  1255  1275  1276     9 
 1256  1255  1275  1277     9 
 1256  1255  1275  1280     9 
 1257  1255  1275  1276     9 
 1257  1255  1275  1277     9 
 1257  1255  1275  1280     9 
 1255  1257  1258  1259     9 
 1255  1257  1258  1260     9 
 1255  1257  1258  1277     9 
 1257  1258  1260  1261     9 
 1257  1258  1260  1274     9 
 1259  1258  1260  1261     9 
 1259  1258  1260  1274     9 
 1277  1258  1260  1261     9 
 1277  1258  1260  1274     9 
 1257  1258  1277  1275     9 
 1257  1258  1277  1278     9 
 1257  1258  1277  1279     9 
 1259  1258  1277  1275     9 
 1259  1258  1277  1278     9 
 1259  1258  1277  1279     9 
 1260  1258  1277  1275     9 
 1260  1258  1277  1278     9 
 1260  1258  1277  1279     9 
 1258  1260  1261  1262     9 
 1258  1260  1261  1263     9 
 1274  1260  1261  1262     9 
 1274  1260  1261  1263     9 
 1258  1260  1274  1264     9 
 1258  1260  1274  1273     9 
 1261  1260  1274  1264     9 
 1261  1260  1274  1273     9 
 1260  1261  1263  1264     9 
 1262  1261  1263  1264     9 
 1261  1263  1264  1265     9 
 1261  1263  1264  1274     9 
 1263  1264  1265  1266     9 
 1263  1264  1265  1267     9 
 1274  1264  1265  1266     9 
 1274  1264  1265  1267     9 
 1263  1264  1274  1260     9 
 1263  1264  1274  1273     9 
 1265  1264  1274  1260     9 
 1265  1264  1274  1273     9 
 1264  1265  1267  1268     9 
 1264  1265  1267  1269     9 
 1266  1265  1267  1268     9 
 1266  1265  1267  1269     9 
 1265  1267  1269  1270     9 
 1265  1267  1269  1273     9 
 1268  1267  1269  1270     9 
 1268  1267  1269  1273     9 
 1267  1269  1270  1271     9 
 1267  1269  1270  1272     9 
 1273  1269  1270  1271     9 
 1273  1269  1270  1272     9 
 1267  1269  1273  1274     9 
 1270  1269  1273  1274     9 
 1269  1273  1274  1260     9 
 1269  1273  1274  1264     9 
 1255  1275  1277  1258     9 
 1255  1275  1277  1278     9 
 1255  1275  1277  1279     9 
 1276  1275  1277  1258     9 
 1276  1275  1277  1278     9 
 1276  1275  1277  1279     9 
 1280  1275  1277  1258     9 
 1280  1275  1277  1278     9 
 1280  1275  1277  1279     9 
 1255  1275  1280  1281     9 
 1276  1275  1280  1281     9 
 1277  1275  1280  1281     9 
 1275  1280  1281  1282     9 
 1275  1280  1281  1283     9 
 1275  1280  1281  1284     9 
 1280  1281  1284  1285     9 
 1282  1281  1284  1285     9 
 1283  1281  1284  1285     9 
 1281  1284  1285  1286     9 
 1281  1284  1285  1287     9 
 1281  1284  1285  1288     9 
 1284  1285  1288  1289     9 
 1284  1285  1288  1290     9 
 1284  1285  1288  1305     9 
 1286  1285  1288  1289     9 
 1286  1285  1288  1290     9 
 1286  1285  1288  1305     9 
 1287  1285  1288  1289     9 
 1287  1285  1288  1290     9 
 1287  1285  1288  1305     9 
 1285  1288  1290  1291     9 
 1289  1288  1290  1291     9 
 1305  1288  1290  1291     9 
 1285  1288  1305  1306     9 
 1285  1288  1305  1307     9 
 1285  1288  1305  1310     9 
 1289  1288  1305  1306     9 
 1289  1288  1305  1307     9 
 1289  1288  1305  1310     9 
 1290  1288  1305  1306     9 
 1290  1288  1305  1307     9 
 1290  1288  1305  1310     9 
 1288  1290  1291  1292     9 
 1288  1290  1291  1293     9 
 1288  1290  1291  1307     9 
 1290  1291  1293  1294     9 
 1290  1291  1293  1303     9 
 1292  1291  1293  1294     9 
 1292  1291  1293  1303     9 
 1307  1291  1293  1294     9 
 1307  1291  1293  1303     9 
 1290  1291  1307  1305     9 
 1290  1291  1307  1308     9 
 1290  1291  1307  1309     9 
 1292  1291  1307  1305     9 
 1292  1291  1307  1308     9 
 1292  1291  1307  1309     9 
 1293  1291  1307  1305     9 
 1293  1291  1307  1308     9 
 1293  1291  1307  1309     9 
 1291  1293  1294  1295     9 
 1291  1293  1294  1296     9 
 1303  1293  1294  1295     9 
 1303  1293  1294  1296     9 
 1291  1293  1303  1302     9 
 1291  1293  1303  1304     9 
 1294  1293  1303  1302     9 
 1294  1293  1303  1304     9 
 1293  1294  1296  1297     9 
 1293  1294  1296  1298     9 
 1295  1294  1296  1297     9 
 1295  1294  1296  1298     9 
 1294  1296  1298  1299     9 
 1294  1296  1298  1302     9 
 1297  1296  1298  1299     9 
 1297  1296  1298  1302     9 
 1296  1298  1299  1300     9 
 1296  1298  1299  1301     9 
 1302  1298  1299  1300     9 
 1302  1298  1299  1301     9 
 1296  1298  1302  1303     9 
 1299  1298  1302  1303     9 
 1298  1302  1303  1293     9 
 1298  1302  1303  1304     9 
 1288  1305  1307  1291     9 
 1288  1305  1307  1308     9 
 1288  1305  1307  1309     9 
 1306  1305  1307  1291     9 
 1306  1305  1307  1308     9 
 1306  1305  1307  1309     9 
 1310  1305  1307  1291     9 
 1310  1305  1307  1308     9 
 1310  1305  1307  1309     9 
 1288  1305  1310  1311     9 
 1306  1305  1310  1311     9 
 1307  1305  1310  1311     9 
 1305  1310  1311  1312     9 
 1305  1310  1311  1313     9 
 1305  1310  1311  1314     9 
 1310  1311  1314  1315     9 
 1312  1311  1314  1315     9 
 1313  1311  1314  1315     9 
 1311  1314  1315  1316     9 
 1311  1314  1315  1317     9 
 1311  1314  1315  1318     9 
 1314  1315  1318  1319     9 
 1314  1315  1318  1320     9 
 1314  1315  1318  1337     9 
 1316  1315  1318  1319     9 
 1316  1315  1318  1320     9 
 1316  1315  1318  1337     9 
 1317  1315  1318  1319     9 
 1317  1315  1318  1320     9 
 1317  1315  1318  1337     9 
 1315  1318  1320  1321     9 
 1319  1318  1320  1321     9 
 1337  1318  1320  1321     9 
 1315  1318  1337  1338     9 
 1315  1318  1337  1339     9 
 1315  1318  1337  1342     9 
 1319  1318  1337  1338     9 
 1319  1318  1337  1339     9 
 1319  1318  1337  1342     9 
 1320  1318  1337  1338     9 
 1320  1318  1337  1339     9 
 1320  1318  1337  1342     9 
 1318  1320  1321  1322     9 
 1318  1320  1321  1323     9 
 1318  1320  1321  1339     9 
 1320  1321  1323  1324     9 
 1320  1321  1323  1335     9 
 1322  1321  1323  1324     9 
 1322  1321  1323  1335     9 
 1339  1321  1323  1324     9 
 1339  1321  1323  1335     9 
 1320  1321  1339  1337     9 
 1320  1321  1339  1340     9 
 1320  1321  1339  1341     9 
 1322  1321  1339  1337     9 
 1322  1321  1339  1340     9 
 1322  1321  1339  1341     9 
 1323  1321  1339  1337     9 
 1323  1321  1339  1340     9 
 1323  1321  1339  1341     9 
 1321  1323  1324  1325     9 
 1321  1323  1324  1326     9 
 1335  1323  1324  1325     9 
 1335  1323  1324  1326     9 
 1321  1323  1335  1333     9 
 1321  1323  1335  1336     9 
 1324  1323  1335  1333     9 
 1324  1323  1335  1336     9 
 1323  1324  1326  1327     9 
 1323  1324  1326  1331     9 
 1325  1324  1326  1327     9 
 1325  1324  1326  1331     9 
 1324  1326  1327  1328     9 
 1324  1326  1327  1329     9 
 1324  1326  1327  1330     9 
 1331  1326  1327  1328     9 
 1331  1326  1327  1329     9 
 1331  1326  1327  1330     9 
 1324  1326  1331  1332     9 
 1324  1326  1331  1333     9 
 1327  1326  1331  1332     9 
 1327  1326  1331  1333     9 
 1326  1331  1333  1334     9 
 1326  1331  1333  1335     9 
 1332  1331  1333  1334     9 
 1332  1331  1333  1335     9 
 1331  1333  1335  1323     9 
 1331  1333  1335  1336     9 
 1334  1333  1335  1323     9 
 1334  1333  1335  1336     9 
 1318  1337  1339  1321     9 
 1318  1337  1339  1340     9 
 1318  1337  1339  1341     9 
 1338  1337  1339  1321     9 
 1338  1337  1339  1340     9 
 1338  1337  1339  1341     9 
 1342  1337  1339  1321     9 
 1342  1337  1339  1340     9 
 1342  1337  1339  1341     9 
 1318  1337  1342  1343     9 
 1338  1337  1342  1343     9 
 1339  1337  1342  1343     9 
 1337  1342  1343  1344     9 
 1337  1342  1343  1345     9 
 1337  1342  1343  1346     9 
 1342  1343  1346  1347     9 
 1344  1343  1346  1347     9 
 1345  1343  1346  1347     9 
 1343  1346  1347  1348     9 
 1343  1346  1347  1349     9 
 1343  1346  1347  1350     9 
 1346  1347  1350  1351     9 
 1346  1347  1350  1352     9 
 1346  1347  1350  1367     9 
 1348  1347  1350  1351     9 
 1348  1347  1350  1352     9 
 1348  1347  1350  1367     9 
 1349  1347  1350  1351     9 
 1349  1347  1350  1352     9 
 1349  1347  1350  1367     9 
 1347  1350  1352  1353     9 
 1351  1350  1352  1353     9 
 1367  1350  1352  1353     9 
 1347  1350  1367  1368     9 
 1347  1350  1367  1369     9 
 1347  1350  1367  1372     9 
 1351  1350  1367  1368     9 
 1351  1350  1367  1369     9 
 1351  1350  1367  1372     9 
 1352  1350  1367  1368     9 
 1352  1350  1367  1369     9 
 1352  1350  1367  1372     9 
 1350  1352  1353  1354     9 
 1350  1352  1353  1355     9 
 1350  1352  1353  1369     9 
 1352  1353  1355  1356     9 
 1352  1353  1355  1365     9 
 1354  1353  1355  1356     9 
 1354  1353  1355  1365     9 
 1369  1353  1355  1356     9 
 1369  1353  1355  1365     9 
 1352  1353  1369  1367     9 
 1352  1353  1369  1370     9 
 1352  1353  1369  1371     9 
 1354  1353  1369  1367     9 
 1354  1353  1369  1370     9 
 1354  1353  1369  1371     9 
 1355  1353  1369  1367     9 
 1355  1353  1369  1370     9 
 1355  1353  1369  1371     9 
 1353  1355  1356  1357     9 
 1353  1355  1356  1358     9 
 1365  1355  1356  1357     9 
 1365  1355  1356  1358     9 
 1353  1355  1365  1364     9 
 1353  1355  1365  1366     9 
 1356  1355  1365  1364     9 
 1356  1355  1365  1366     9 
 1355  1356  1358  1359     9 
 1355  1356  1358  1360     9 
 1357  1356  1358  1359     9 
 1357  1356  1358  1360     9 
 1356  1358  1360  1361     9 
 1356  1358  1360  1364     9 
 1359  1358  1360  1361     9 
 1359  1358  1360  1364     9 
 1358  1360  1361  1362     9 
 1358  1360  1361  1363     9 
 1364  1360  1361  1362     9 
 1364  1360  1361  1363     9 
 1358  1360  1364  1365     9 
 1361  1360  1364  1365     9 
 1360  1364  1365  1355     9 
 1360  1364  1365  1366     9 
 1350  1367  1369  1353     9 
 1350  1367  1369  1370     9 
 1350  1367  1369  1371     9 
 1368  1367  1369  1353     9 
 1368  1367  1369  1370     9 
 1368  1367  1369  1371     9 
 1372  1367  1369  1353     9 
 1372  1367  1369  1370     9 
 1372  1367  1369  1371     9 
 1350  1367  1372  1373     9 
 1368  1367  1372  1373     9 
 1369  1367  1372  1373     9 
 1367  1372  1373  1374     9 
 1367  1372  1373  1375     9 
 1367  1372  1373  1376     9 
 1372  1373  1376  1377     9 
 1374  1373  1376  1377     9 
 1375  1373  1376  1377     9 
 1373  1376  1377  1378     9 
 1373  1376  1377  1379     9 
 1373  1376  1377  1380     9 
 1376  1377  1380  1381     9 
 1376  1377  1380  1382     9 
 1376  1377  1380  1397     9 
 1378  1377  1380  1381     9 
 1378  1377  1380  1382     9 
 1378  1377  1380  1397     9 
 1379  1377  1380  1381     9 
 1379  1377  1380  1382     9 
 1379  1377  1380  1397     9 
 1377  1380  1382  1383     9 
 1381  1380  1382  1383     9 
 1397  1380  1382  1383     9 
 1377  1380  1397  1398     9 
 1377  1380  1397  1399     9 
 1377  1380  1397  1402     9 
 1381  1380  1397  1398     9 
 1381  1380  1397  1399     9 
 1381  1380  1397  1402     9 
 1382  1380  1397  1398     9 
 1382  1380  1397  1399     9 
 1382  1380  1397  1402     9 
 1380  1382  1383  1384     9 
 1380  1382  1383  1385     9 
 1380  1382  1383  1399     9 
 1382  1383  1385  1386     9 
 1382  1383  1385  1395     9 
 1384  1383  1385  1386     9 
 1384  1383  1385  1395     9 
 1399  1383  1385  1386     9 
 1399  1383  1385  1395     9 
 1382  1383  1399  1397     9 
 1382  1383  1399  1400     9 
 1382  1383  1399  1401     9 
 1384  1383  1399  1397     9 
 1384  1383  1399  1400     9 
 1384  1383  1399  1401     9 
 1385  1383  1399  1397     9 
 1385  1383  1399  1400     9 
 1385  1383  1399  1401     9 
 1383  1385  1386  1387     9 
 1383  1385  1386  1388     9 
 1395  1385  1386  1387     9 
 1395  1385  1386  1388     9 
 1383  1385  1395  1394     9 
 1383  1385  1395  1396     9 
 1386  1385  1395  1394     9 
 1386  1385  1395  1396     9 
 1385  1386  1388  1389     9 
 1385  1386  1388  1390     9 
 1387  1386  1388  1389     9 
 1387  1386  1388  1390     9 
 1386  1388  1390  1391     9 
 1386  1388  1390  1394     9 
 1389  1388  1390  1391     9 
 1389  1388  1390  1394     9 
 1388  1390  1391  1392     9 
 1388  1390  1391  1393     9 
 1394  1390  1391  1392     9 
 1394  1390  1391  1393     9 
 1388  1390  1394  1395     9 
 1391  1390  1394  1395     9 
 1390  1394  1395  1385     9 
 1390  1394  1395  1396     9 
 1380  1397  1399  1383     9 
 1380  1397  1399  1400     9 
 1380  1397  1399  1401     9 
 1398  1397  1399  1383     9 
 1398  1397  1399  1400     9 
 1398  1397  1399  1401     9 
 1402  1397  1399  1383     9 
 1402  1397  1399  1400     9 
 1402  1397  1399  1401     9 
 1380  1397  1402  1403     9 
 1398  1397  1402  1403     9 
 1399  1397  1402  1403     9 
 1397  1402  1403  1404     9 
 1397  1402  1403  1405     9 
 1397  1402  1403  1406     9 
 1402  1403  1406  1407     9 
 1404  1403  1406  1407     9 
 1405  1403  1406  1407     9 
 1403  1406  1407  1408     9 
 1403  1406  1407  1409     9 
 1403  1406  1407  1410     9 
 1406  1407  1410  1411     9 
 1406  1407  1410  1412     9 
 1406  1407  1410  1430     9 
 1408  1407  1410  1411     9 
 1408  1407  1410  1412     9 
 1408  1407  1410  1430     9 
 1409  1407  1410  1411     9 
 1409  1407  1410  1412     9 
 1409  1407  1410  1430     9 
 1407  1410  1412  1413     9 
 1411  1410  1412  1413     9 
 1430  1410  1412  1413     9 
 1407  1410  1430  1431     9 
 1407  1410  1430  1432     9 
 1407  1410  1430  1435     9 
 1411  1410  1430  1431     9 
 1411  1410  1430  1432     9 
 1411  1410  1430  1435     9 
 1412  1410  1430  1431     9 
 1412  1410  1430  1432     9 
 1412  1410  1430  1435     9 
 1410  1412  1413  1414     9 
 1410  1412  1413  1415     9 
 1410  1412  1413  1432     9 
 1412  1413  1415  1416     9 
 1412  1413  1415  1429     9 
 1414  1413  1415  1416     9 
 1414  1413  1415  1429     9 
 1432  1413  1415  1416     9 
 1432  1413  1415  1429     9 
 1412  1413  1432  1430     9 
 1412  1413  1432  1433     9 
 1412  1413  1432  1434     9 
 1414  1413  1432  1430     9 
 1414  1413  1432  1433     9 
 1414  1413  1432  1434     9 
 1415  1413  1432  1430     9 
 1415  1413  1432  1433     9 
 1415  1413  1432  1434     9 
 1413  1415  1416  1417     9 
 1413  1415  1416  1418     9 
 1429  1415  1416  1417     9 
 1429  1415  1416  1418     9 
 1413  1415  1429  1419     9 
 1413  1415  1429  1428     9 
 1416  1415  1429  1419     9 
 1416  1415  1429  1428     9 
 1415  1416  1418  1419     9 
 1417  1416  1418  1419     9 
 1416  1418  1419  1420     9 
 1416  1418  1419  1429     9 
 1418  1419  1420  1421     9 
 1418  1419  1420  1422     9 
 1429  1419  1420  1421     9 
 1429  1419  1420  1422     9 
 1418  1419  1429  1415     9 
 1418  1419  1429  1428     9 
 1420  1419  1429  1415     9 
 1420  1419  1429  1428     9 
 1419  1420  1422  1423     9 
 1419  1420  1422  1424     9 
 1421  1420  1422  1423     9 
 1421  1420  1422  1424     9 
 1420  1422  1424  1425     9 
 1420  1422  1424  1428     9 
 1423  1422  1424  1425     9 
 1423  1422  1424  1428     9 
 1422  1424  1425  1426     9 
 1422  1424  1425  1427     9 
 1428  1424  1425  1426     9 
 1428  1424  1425  1427     9 
 1422  1424  1428  1429     9 
 1425  1424  1428  1429     9 
 1424  1428  1429  1415     9 
 1424  1428  1429  1419     9 
 1410  1430  1432  1413     9 
 1410  1430  1432  1433     9 
 1410  1430  1432  1434     9 
 1431  1430  1432  1413     9 
 1431  1430  1432  1433     9 
 1431  1430  1432  1434     9 
 1435  1430  1432  1413     9 
 1435  1430  1432  1433     9 
 1435  1430  1432  1434     9 
 1410  1430  1435  1436     9 
 1431  1430  1435  1436     9 
 1432  1430  1435  1436     9 
 1430  1435  1436  1437     9 
 1430  1435  1436  1438     9 
 1430  1435  1436  1439     9 
 1435  1436  1439  1440     9 
 1437  1436  1439  1440     9 
 1438  1436  1439  1440     9 
 1436  1439  1440  1441     9 
 1436  1439  1440  1442     9 
 1436  1439  1440  1443     9 
 1439  1440  1443  1444     9 
 1439  1440  1443  1445     9 
 1439  1440  1443  1462     9 
 1441  1440  1443  1444     9 
 1441  1440  1443  1445     9 
 1441  1440  1443  1462     9 
 1442  1440  1443  1444     9 
 1442  1440  1443  1445     9 
 1442  1440  1443  1462     9 
 1440  1443  1445  1446     9 
 1444  1443  1445  1446     9 
 1462  1443  1445  1446     9 
 1440  1443  1462  1463     9 
 1440  1443  1462  1464     9 
 1440  1443  1462  1467     9 
 1444  1443  1462  1463     9 
 1444  1443  1462  1464     9 
 1444  1443  1462  1467     9 
 1445  1443  1462  1463     9 
 1445  1443  1462  1464     9 
 1445  1443  1462  1467     9 
 1443  1445  1446  1447     9 
 1443  1445  1446  1448     9 
 1443  1445  1446  1464     9 
 1445  1446  1448  1449     9 
 1445  1446  1448  1460     9 
 1447  1446  1448  1449     9 
 1447  1446  1448  1460     9 
 1464  1446  1448  1449     9 
 1464  1446  1448  1460     9 
 1445  1446  1464  1462     9 
 1445  1446  1464  1465     9 
 1445  1446  1464  1466     9 
 1447  1446  1464  1462     9 
 1447  1446  1464  1465     9 
 1447  1446  1464  1466     9 
 1448  1446  1464  1462     9 
 1448  1446  1464  1465     9 
 1448  1446  1464  1466     9 
 1446  1448  1449  1450     9 
 1446  1448  1449  1451     9 
 1460  1448  1449  1450     9 
 1460  1448  1449  1451     9 
 1446  1448  1460  1458     9 
 1446  1448  1460  1461     9 
 1449  1448  1460  1458     9 
 1449  1448  1460  1461     9 
 1448  1449  1451  1452     9 
 1448  1449  1451  1456     9 
 1450  1449  1451  1452     9 
 1450  1449  1451  1456     9 
 1449  1451  1452  1453     9 
 1449  1451  1452  1454     9 
 1449  1451  1452  1455     9 
 1456  1451  1452  1453     9 
 1456  1451  1452  1454     9 
 1456  1451  1452  1455     9 
 1449  1451  1456  1457     9 
 1449  1451  1456  1458     9 
 1452  1451  1456  1457     9 
 1452  1451  1456  1458     9 
 1451  1456  1458  1459     9 
 1451  1456  1458  1460     9 
 1457  1456  1458  1459     9 
 1457  1456  1458  1460     9 
 1456  1458  1460  1448     9 
 1456  1458  1460  1461     9 
 1459  1458  1460  1448     9 
 1459  1458  1460  1461     9 
 1443  1462  1464  1446     9 
 1443  1462  1464  1465     9 
 1443  1462  1464  1466     9 
 1463  1462  1464  1446     9 
 1463  1462  1464  1465     9 
 1463  1462  1464  1466     9 
 1467  1462  1464  1446     9 
 1467  1462  1464  1465     9 
 1467  1462  1464  1466     9 
 1443  1462  1467  1468     9 
 1463  1462  1467  1468     9 
 1464  1462  1467  1468     9 
 1462  1467  1468  1469     9 
 1462  1467  1468  1470     9 
 1462  1467  1468  1471     9 
 1467  1468  1471  1472     9 
 1469  1468  1471  1472     9 
 1470  1468  1471  1472     9 
 1468  1471  1472  1473     9 
 1468  1471  1472  1474     9 
 1468  1471  1472  1475     9 
 1471  1472  1475  1476     9 
 1471  1472  1475  1477     9 
 1471  1472  1475  1494     9 
 1473  1472  1475  1476     9 
 1473  1472  1475  1477     9 
 1473  1472  1475  1494     9 
 1474  1472  1475  1476     9 
 1474  1472  1475  1477     9 
 1474  1472  1475  1494     9 
 1472  1475  1477  1478     9 
 1476  1475  1477  1478     9 
 1494  1475  1477  1478     9 
 1472  1475  1494  1495     9 
 1472  1475  1494  1496     9 
 1472  1475  1494  1499     9 
 1476  1475  1494  1495     9 
 1476  1475  1494  1496     9 
 1476  1475  1494  1499     9 
 1477  1475  1494  1495     9 
 1477  1475  1494  1496     9 
 1477  1475  1494  1499     9 
 1475  1477  1478  1479     9 
 1475  1477  1478  1480     9 
 1475  1477  1478  1496     9 
 1477  1478  1480  1481     9 
 1477  1478  1480  1493     9 
 1479  1478  1480  1481     9 
 1479  1478  1480  1493     9 
 1496  1478  1480  1481     9 
 1496  1478  1480  1493     9 
 1477  1478  1496  1494     9 
 1477  1478  1496  1497     9 
 1477  1478  1496  1498     9 
 1479  1478  1496  1494     9 
 1479  1478  1496  1497     9 
 1479  1478  1496  1498     9 
 1480  1478  1496  1494     9 
 1480  1478  1496  1497     9 
 1480  1478  1496  1498     9 
 1478  1480  1481  1482     9 
 1478  1480  1481  1483     9 
 1493  1480  1481  1482     9 
 1493  1480  1481  1483     9 
 1478  1480  1493  1484     9 
 1478  1480  1493  1492     9 
 1481  1480  1493  1484     9 
 1481  1480  1493  1492     9 
 1480  1481  1483  1484     9 
 1482  1481  1483  1484     9 
 1481  1483  1484  1485     9 
 1481  1483  1484  1493     9 
 1483  1484  1485  1486     9 
 1483  1484  1485  1489     9 
 1493  1484  1485  1486     9 
 1493  1484  1485  1489     9 
 1483  1484  1493  1480     9 
 1483  1484  1493  1492     9 
 1485  1484  1493  1480     9 
 1485  1484  1493  1492     9 
 1484  1485  1486  1487     9 
 1484  1485  1486  1488     9 
 1489  1485  1486  1487     9 
 1489  1485  1486  1488     9 
 1484  1485  1489  1490     9 
 1486  1485  1489  1490     9 
 1485  1489  1490  1491     9 
 1485  1489  1490  1492     9 
 1489  1490  1492  1493     9 
 1491  1490  1492  1493     9 
 1490  1492  1493  1480     9 
 1490  1492  1493  1484     9 
 1475  1494  1496  1478     9 
 1475  1494  1496  1497     9 
 1475  1494  1496  1498     9 
 1495  1494  1496  1478     9 
 1495  1494  1496  1497     9 
 1495  1494  1496  1498     9 
 1499  1494  1496  1478     9 
 1499  1494  1496  1497     9 
 1499  1494  1496  1498     9 
 1475  1494  1499  1500     9 
 1495  1494  1499  1500     9 
 1496  1494  1499  1500     9 
 1494  1499  1500  1501     9 
 1494  1499  1500  1502     9 
 1494  1499  1500  1503     9 
 1499  1500  1503  1504     9 
 1501  1500  1503  1504     9 
 1502  1500  1503  1504     9 
 1500  1503  1504  1505     9 
 1500  1503  1504  1506     9 
 1500  1503  1504  1507     9 
 1503  1504  1507  1508     9 
 1503  1504  1507  1509     9 
 1503  1504  1507  1524     9 
 1505  1504  1507  1508     9 
 1505  1504  1507  1509     9 
 1505  1504  1507  1524     9 
 1506  1504  1507  1508     9 
 1506  1504  1507  1509     9 
 1506  1504  1507  1524     9 
 1504  1507  1509  1510     9 
 1508  1507  1509  1510     9 
 1524  1507  1509  1510     9 
 1504  1507  1524  1525     9 
 1504  1507  1524  1526     9 
 1504  1507  1524  1529     9 
 1508  1507  1524  1525     9 
 1508  1507  1524  1526     9 
 1508  1507  1524  1529     9 
 1509  1507  1524  1525     9 
 1509  1507  1524  1526     9 
 1509  1507  1524  1529     9 
 1507  1509  1510  1511     9 
 1507  1509  1510  1512     9 
 1507  1509  1510  1526     9 
 1509  1510  1512  1513     9 
 1509  1510  1512  1522     9 
 1511  1510  1512  1513     9 
 1511  1510  1512  1522     9 
 1526  1510  1512  1513     9 
 1526  1510  1512  1522     9 
 1509  1510  1526  1524     9 
 1509  1510  1526  1527     9 
 1509  1510  1526  1528     9 
 1511  1510  1526  1524     9 
 1511  1510  1526  1527     9 
 1511  1510  1526  1528     9 
 1512  1510  1526  1524     9 
 1512  1510  1526  1527     9 
 1512  1510  1526  1528     9 
 1510  1512  1513  1514     9 
 1510  1512  1513  1515     9 
 1522  1512  1513  1514     9 
 1522  1512  1513  1515     9 
 1510  1512  1522  1521     9 
 1510  1512  1522  1523     9 
 1513  1512  1522  1521     9 
 1513  1512  1522  1523     9 
 1512  1513  1515  1516     9 
 1512  1513  1515  1517     9 
 1514  1513  1515  1516     9 
 1514  1513  1515  1517     9 
 1513  1515  1517  1518     9 
 1513  1515  1517  1521     9 
 1516  1515  1517  1518     9 
 1516  1515  1517  1521     9 
 1515  1517  1518  1519     9 
 1515  1517  1518  1520     9 
 1521  1517  1518  1519     9 
 1521  1517  1518  1520     9 
 1515  1517  1521  1522     9 
 1518  1517  1521  1522     9 
 1517  1521  1522  1512     9 
 1517  1521  1522  1523     9 
 1507  1524  1526  1510     9 
 1507  1524  1526  1527     9 
 1507  1524  1526  1528     9 
 1525  1524  1526  1510     9 
 1525  1524  1526  1527     9 
 1525  1524  1526  1528     9 
 1529  1524  1526  1510     9 
 1529  1524  1526  1527     9 
 1529  1524  1526  1528     9 
 1507  1524  1529  1530     9 
 1525  1524  1529  1530     9 
 1526  1524  1529  1530     9 
 1524  1529  1530  1531     9 
 1524  1529  1530  1532     9 
 1524  1529  1530  1533     9 
 1529  1530  1533  1534     9 
 1531  1530  1533  1534     9 
 1532  1530  1533  1534     9 
 1530  1533  1534  1535     9 
 1530  1533  1534  1536     9 
 1530  1533  1534  1537     9 
 1533  1534  1537  1538     9 
 1533  1534  1537  1539     9 
 1533  1534  1537  1554     9 
 1535  1534  1537  1538     9 
 1535  1534  1537  1539     9 
 1535  1534  1537  1554     9 
 1536  1534  1537  1538     9 
 1536  1534  1537  1539     9 
 1536  1534  1537  1554     9 
 1534  1537  1539  1540     9 
 1538  1537  1539  1540     9 
 1554  1537  1539  1540     9 
 1534  1537  1554  1555     9 
 1534  1537  1554  1556     9 
 1534  1537  1554  1559     9 
 1538  1537  1554  1555     9 
 1538  1537  1554  1556     9 
 1538  1537  1554  1559     9 
 1539  1537  1554  1555     9 
 1539  1537  1554  1556     9 
 1539  1537  1554  1559     9 
 1537  1539  1540  1541     9 
 1537  1539  1540  1542     9 
 1537  1539  1540  1556     9 
 1539  1540  1542  1543     9 
 1539  1540  1542  1552     9 
 1541  1540  1542  1543     9 
 1541  1540  1542  1552     9 
 1556  1540  1542  1543     9 
 1556  1540  1542  1552     9 
 1539  1540  1556  1554     9 
 1539  1540  1556  1557     9 
 1539  1540  1556  1558     9 
 1541  1540  1556  1554     9 
 1541  1540  1556  1557     9 
 1541  1540  1556  1558     9 
 1542  1540  1556  1554     9 
 1542  1540  1556  1557     9 
 1542  1540  1556  1558     9 
 1540  1542  1543  1544     9 
 1540  1542  1543  1545     9 
 1552  1542  1543  1544     9 
 1552  1542  1543  1545     9 
 1540  1542  1552  1551     9 
 1540  1542  1552  1553     9 
 1543  1542  1552  1551     9 
 1543  1542  1552  1553     9 
 1542  1543  1545  1546     9 
 1542  1543  1545  1547     9 
 1544  1543  1545  1546     9 
 1544  1543  1545  1547     9 
 1543  1545  1547  1548     9 
 1543  1545  1547  1551     9 
 1546  1545  1547  1548     9 
 1546  1545  1547  1551     9 
 1545  1547  1548  1549     9 
 1545  1547  1548  1550     9 
 1551  1547  1548  1549     9 
 1551  1547  1548  1550     9 
 1545  1547  1551  1552     9 
 1548  1547  1551  1552     9 
 1547  1551  1552  1542     9 
 1547  1551  1552  1553     9 
 1537  1554  1556  1540     9 
 1537  1554  1556  1557     9 
 1537  1554  1556  1558     9 
 1555  1554  1556  1540     9 
 1555  1554  1556  1557     9 
 1555  1554  1556  1558     9 
 1559  1554  1556  1540     9 
 1559  1554  1556  1557     9 
 1559  1554  1556  1558     9 
 1537  1554  1559  1560     9 
 1555  1554  1559  1560     9 
 1556  1554  1559  1560     9 
 1554  1559  1560  1561     9 
 1554  1559  1560  1562     9 
 1554  1559  1560  1563     9 
 1559  1560  1563  1564     9 
 1561  1560  1563  1564     9 
 1562  1560  1563  1564     9 
 1560  1563  1564  1565     9 
 1560  1563  1564  1566     9 
 1560  1563  1564  1567     9 
 1563  1564  1567  1568     9 
 1563  1564  1567  1569     9 
 1563  1564  1567  1586     9 
 1565  1564  1567  1568     9 
 1565  1564  1567  1569     9 
 1565  1564  1567  1586     9 
 1566  1564  1567  1568     9 
 1566  1564  1567  1569     9 
 1566  1564  1567  1586     9 
 1564  1567  1569  1570     9 
 1568  1567  1569  1570     9 
 1586  1567  1569  1570     9 
 1564  1567  1586  1587     9 
 1564  1567  1586  1588     9 
 1564  1567  1586  1591     9 
 1568  1567  1586  1587     9 
 1568  1567  1586  1588     9 
 1568  1567  1586  1591     9 
 1569  1567  1586  1587     9 
 1569  1567  1586  1588     9 
 1569  1567  1586  1591     9 
 1567  1569  1570  1571     9 
 1567  1569  1570  1572     9 
 1567  1569  1570  1588     9 
 1569  1570  1572  1573     9 
 1569  1570  1572  1584     9 
 1571  1570  1572  1573     9 
 1571  1570  1572  1584     9 
 1588  1570  1572  1573     9 
 1588  1570  1572  1584     9 
 1569  1570  1588  1586     9 
 1569  1570  1588  1589     9 
 1569  1570  1588  1590     9 
 1571  1570  1588  1586     9 
 1571  1570  1588  1589     9 
 1571  1570  1588  1590     9 
 1572  1570  1588  1586     9 
 1572  1570  1588  1589     9 
 1572  1570  1588  1590     9 
 1570  1572  1573  1574     9 
 1570  1572  1573  1575     9 
 1584  1572  1573  1574     9 
 1584  1572  1573  1575     9 
 1570  1572  1584  1582     9 
 1570  1572  1584  1585     9 
 1573  1572  1584  1582     9 
 1573  1572  1584  1585     9 
 1572  1573  1575  1576     9 
 1572  1573  1575  1580     9 
 1574  1573  1575  1576     9 
 1574  1573  1575  1580     9 
 1573  1575  1576  1577     9 
 1573  1575  1576  1578     9 
 1573  1575  1576  1579     9 
 1580  1575  1576  1577     9 
 1580  1575  1576  1578     9 
 1580  1575  1576  1579     9 
 1573  1575  1580  1581     9 
 1573  1575  1580  1582     9 
 1576  1575  1580  1581     9 
 1576  1575  1580  1582     9 
 1575  1580  1582  1583     9 
 1575  1580  1582  1584     9 
 1581  1580  1582  1583     9 
 1581  1580  1582  1584     9 
 1580  1582  1584  1572     9 
 1580  1582  1584  1585     9 
 1583  1582  1584  1572     9 
 1583  1582  1584  1585     9 
 1567  1586  1588  1570     9 
 1567  1586  1588  1589     9 
 1567  1586  1588  1590     9 
 1587  1586  1588  1570     9 
 1587  1586  1588  1589     9 
 1587  1586  1588  1590     9 
 1591  1586  1588  1570     9 
 1591  1586  1588  1589     9 
 1591  1586  1588  1590     9 
 1567  1586  1591  1592     9 
 1587  1586  1591  1592     9 
 1588  1586  1591  1592     9 
 1586  1591  1592  1593     9 
 1586  1591  1592  1594     9 
 1586  1591  1592  1595     9 
 1591  1592  1595  1596     9 
 1593  1592  1595  1596     9 
 1594  1592  1595  1596     9 
 1592  1595  1596  1597     9 
 1592  1595  1596  1598     9 
 1592  1595  1596  1599     9 
 1595  1596  1599  1600     9 
 1595  1596  1599  1601     9 
 1595  1596  1599  1616     9 
 1597  1596  1599  1600     9 
 1597  1596  1599  1601     9 
 1597  1596  1599  1616     9 
 1598  1596  1599  1600     9 
 1598  1596  1599  1601     9 
 1598  1596  1599  1616     9 
 1596  1599  1601  1602     9 
 1600  1599  1601  1602     9 
 1616  1599  1601  1602     9 
 1596  1599  1616  1617     9 
 1596  1599  1616  1618     9 
 1596  1599  1616  1621     9 
 1600  1599  1616  1617     9 
 1600  1599  1616  1618     9 
 1600  1599  1616  1621     9 
 1601  1599  1616  1617     9 
 1601  1599  1616  1618     9 
 1601  1599  1616  1621     9 
 1599  1601  1602  1603     9 
 1599  1601  1602  1604     9 
 1599  1601  1602  1618     9 
 1601  1602  1604  1605     9 
 1601  1602  1604  1614     9 
 1603  1602  1604  1605     9 
 1603  1602  1604  1614     9 
 1618  1602  1604  1605     9 
 1618  1602  1604  1614     9 
 1601  1602  1618  1616     9 
 1601  1602  1618  1619     9 
 1601  1602  1618  1620     9 
 1603  1602  1618  1616     9 
 1603  1602  1618  1619     9 
 1603  1602  1618  1620     9 
 1604  1602  1618  1616     9 
 1604  1602  1618  1619     9 
 1604  1602  1618  1620     9 
 1602  1604  1605  1606     9 
 1602  1604  1605  1607     9 
 1614  1604  1605  1606     9 
 1614  1604  1605  1607     9 
 1602  1604  1614  1613     9 
 1602  1604  1614  1615     9 
 1605  1604  1614  1613     9 
 1605  1604  1614  1615     9 
 1604  1605  1607  1608     9 
 1604  1605  1607  1609     9 
 1606  1605  1607  1608     9 
 1606  1605  1607  1609     9 
 1605  1607  1609  1610     9 
 1605  1607  1609  1613     9 
 1608  1607  1609  1610     9 
 1608  1607  1609  1613     9 
 1607  1609  1610  1611     9 
 1607  1609  1610  1612     9 
 1613  1609  1610  1611     9 
 1613  1609  1610  1612     9 
 1607  1609  1613  1614     9 
 1610  1609  1613  1614     9 
 1609  1613  1614  1604     9 
 1609  1613  1614  1615     9 
 1599  1616  1618  1602     9 
 1599  1616  1618  1619     9 
 1599  1616  1618  1620     9 
 1617  1616  1618  1602     9 
 1617  1616  1618  1619     9 
 1617  1616  1618  1620     9 
 1621  1616  1618  1602     9 
 1621  1616  1618  1619     9 
 1621  1616  1618  1620     9 
 1599  1616  1621  1622     9 
 1617  1616  1621  1622     9 
 1618  1616  1621  1622     9 
 1616  1621  1622  1623     9 
 1616  1621  1622  1624     9 
 1616  1621  1622  1625     9 
 1621  1622  1625  1626     9 
 1623  1622  1625  1626     9 
 1624  1622  1625  1626     9 
 1622  1625  1626  1627     9 
 1622  1625  1626  1628     9 
 1622  1625  1626  1629     9 
 1625  1626  1629  1630     9 
 1625  1626  1629  1631     9 
 1625  1626  1629  1648     9 
 1627  1626  1629  1630     9 
 1627  1626  1629  1631     9 
 1627  1626  1629  1648     9 
 1628  1626  1629  1630     9 
 1628  1626  1629  1631     9 
 1628  1626  1629  1648     9 
 1626  1629  1631  1632     9 
 1630  1629  1631  1632     9 
 1648  1629  1631  1632     9 
 1626  1629  1648  1649     9 
 1626  1629  1648  1650     9 
 1626  1629  1648  1653     9 
 1630  1629  1648  1649     9 
 1630  1629  1648  1650     9 
 1630  1629  1648  1653     9 
 1631  1629  1648  1649     9 
 1631  1629  1648  1650     9 
 1631  1629  1648  1653     9 
 1629  1631  1632  1633     9 
 1629  1631  1632  1634     9 
 1629  1631  1632  1650     9 
 1631  1632  1634  1635     9 
 1631  1632  1634  1646     9 
 1633  1632  1634  1635     9 
 1633  1632  1634  1646     9 
 1650  1632  1634  1635     9 
 1650  1632  1634  1646     9 
 1631  1632  1650  1648     9 
 1631  1632  1650  1651     9 
 1631  1632  1650  1652     9 
 1633  1632  1650  1648     9 
 1633  1632  1650  1651     9 
 1633  1632  1650  1652     9 
 1634  1632  1650  1648     9 
 1634  1632  1650  1651     9 
 1634  1632  1650  1652     9 
 1632  1634  1635  1636     9 
 1632  1634  1635  1637     9 
 1646  1634  1635  1636     9 
 1646  1634  1635  1637     9 
 1632  1634  1646  1644     9 
 1632  1634  1646  1647     9 
 1635  1634  1646  1644     9 
 1635  1634  1646  1647     9 
 1634  1635  1637  1638     9 
 1634  1635  1637  1642     9 
 1636  1635  1637  1638     9 
 1636  1635  1637  1642     9 
 1635  1637  1638  1639     9 
 1635  1637  1638  1640     9 
 1635  1637  1638  1641     9 
 1642  1637  1638  1639     9 
 1642  1637  1638  1640     9 
 1642  1637  1638  1641     9 
 1635  1637  1642  1643     9 
 1635  1637  1642  1644     9 
 1638  1637  1642  1643     9 
 1638  1637  1642  1644     9 
 1637  1642  1644  1645     9 
 1637  1642  1644  1646     9 
 1643  1642  1644  1645     9 
 1643  1642  1644  1646     9 
 1642  1644  1646  1634     9 
 1642  1644  1646  1647     9 
 1645  1644  1646  1634     9 
 1645  1644  1646  1647     9 
 1629  1648  1650  1632     9 
 1629  1648  1650  1651     9 
 1629  1648  1650  1652     9 
 1649  1648  1650  1632     9 
 1649  1648  1650  1651     9 
 1649  1648  1650  1652     9 
 1653  1648  1650  1632     9 
 1653  1648  1650  1651     9 
 1653  1648  1650  1652     9 
 1629  1648  1653  1654     9 
 1649  1648  1653  1654     9 
 1650  1648  1653  1654     9 
 1648  1653  1654  1655     9 
 1648  1653  1654  1656     9 
 1648  1653  1654  1657     9 
 1653  1654  1657  1658     9 
 1655  1654  1657  1658     9 
 1656  1654  1657  1658     9 
 1654  1657  1658  1659     9 
 1654  1657  1658  1660     9 
 1654  1657  1658  1661     9 
 1657  1658  1661  1662     9 
 1657  1658  1661  1663     9 
 1657  1658  1661  1678     9 
 1659  1658  1661  1662     9 
 1659  1658  1661  1663     9 
 1659  1658  1661  1678     9 
 1660  1658  1661  1662     9 
 1660  1658  1661  1663     9 
 1660  1658  1661  1678     9 
 1658  1661  1663  1664     9 
 1662  1661  1663  1664     9 
 1678  1661  1663  1664     9 
 1658  1661  1678  1679     9 
 1658  1661  1678  1680     9 
 1658  1661  1678  1683     9 
 1662  1661  1678  1679     9 
 1662  1661  1678  1680     9 
 1662  1661  1678  1683     9 
 1663  1661  1678  1679     9 
 1663  1661  1678  1680     9 
 1663  1661  1678  1683     9 
 1661  1663  1664  1665     9 
 1661  1663  1664  1666     9 
 1661  1663  1664  1680     9 
 1663  1664  1666  1667     9 
 1663  1664  1666  1676     9 
 1665  1664  1666  1667     9 
 1665  1664  1666  1676     9 
 1680  1664  1666  1667     9 
 1680  1664  1666  1676     9 
 1663  1664  1680  1678     9 
 1663  1664  1680  1681     9 
 1663  1664  1680  1682     9 
 1665  1664  1680  1678     9 
 1665  1664  1680  1681     9 
 1665  1664  1680  1682     9 
 1666  1664  1680  1678     9 
 1666  1664  1680  1681     9 
 1666  1664  1680  1682     9 
 1664  1666  1667  1668     9 
 1664  1666  1667  1669     9 
 1676  1666  1667  1668     9 
 1676  1666  1667  1669     9 
 1664  1666  1676  1675     9 
 1664  1666  1676  1677     9 
 1667  1666  1676  1675     9 
 1667  1666  1676  1677     9 
 1666  1667  1669  1670     9 
 1666  1667  1669  1671     9 
 1668  1667  1669  1670     9 
 1668  1667  1669  1671     9 
 1667  1669  1671  1672     9 
 1667  1669  1671  1675     9 
 1670  1669  1671  1672     9 
 1670  1669  1671  1675     9 
 1669  1671  1672  1673     9 
 1669  1671  1672  1674     9 
 1675  1671  1672  1673     9 
 1675  1671  1672  1674     9 
 1669  1671  1675  1676     9 
 1672  1671  1675  1676     9 
 1671  1675  1676  1666     9 
 1671  1675  1676  1677     9 
 1661  1678  1680  1664     9 
 1661  1678  1680  1681     9 
 1661  1678  1680  1682     9 
 1679  1678  1680  1664     9 
 1679  1678  1680  1681     9 
 1679  1678  1680  1682     9 
 1683  1678  1680  1664     9 
 1683  1678  1680  1681     9 
 1683  1678  1680  1682     9 
 1661  1678  1683  1684     9 
 1679  1678  1683  1684     9 
 1680  1678  1683  1684     9 
 1678  1683  1684  1685     9 
 1678  1683  1684  1686     9 
 1678  1683  1684  1687     9 
 1683  1684  1687  1688     9 
 1685  1684  1687  1688     9 
 1686  1684  1687  1688     9 
 1684  1687  1688  1689     9 
 1684  1687  1688  1690     9 
 1684  1687  1688  1691     9 
 1687  1688  1691  1692     9 
 1687  1688  1691  1693     9 
 1687  1688  1691  1710     9 
 1689  1688  1691  1692     9 
 1689  1688  1691  1693     9 
 1689  1688  1691  1710     9 
 1690  1688  1691  1692     9 
 1690  1688  1691  1693     9 
 1690  1688  1691  1710     9 
 1688  1691  1693  1694     9 
 1692  1691  1693  1694     9 
 1710  1691  1693  1694     9 
 1688  1691  1710  1711     9 
 1688  1691  1710  1712     9 
 1688  1691  1710  1715     9 
 1692  1691  1710  1711     9 
 1692  1691  1710  1712     9 
 1692  1691  1710  1715     9 
 1693  1691  1710  1711     9 
 1693  1691  1710  1712     9 
 1693  1691  1710  1715     9 
 1691  1693  1694  1695     9 
 1691  1693  1694  1696     9 
 1691  1693  1694  1712     9 
 1693  1694  1696  1697     9 
 1693  1694  1696  1708     9 
 1695  1694  1696  1697     9 
 1695  1694  1696  1708     9 
 1712  1694  1696  1697     9 
 1712  1694  1696  1708     9 
 1693  1694  1712  1710     9 
 1693  1694  1712  1713     9 
 1693  1694  1712  1714     9 
 1695  1694  1712  1710     9 
 1695  1694  1712  1713     9 
 1695  1694  1712  1714     9 
 1696  1694  1712  1710     9 
 1696  1694  1712  1713     9 
 1696  1694  1712  1714     9 
 1694  1696  1697  1698     9 
 1694  1696  1697  1699     9 
 1708  1696  1697  1698     9 
 1708  1696  1697  1699     9 
 1694  1696  1708  1706     9 
 1694  1696  1708  1709     9 
 1697  1696  1708  1706     9 
 1697  1696  1708  1709     9 
 1696  1697  1699  1700     9 
 1696  1697  1699  1704     9 
 1698  1697  1699  1700     9 
 1698  1697  1699  1704     9 
 1697  1699  1700  1701     9 
 1697  1699  1700  1702     9 
 1697  1699  1700  1703     9 
 1704  1699  1700  1701     9 
 1704  1699  1700  1702     9 
 1704  1699  1700  1703     9 
 1697  1699  1704  1705     9 
 1697  1699  1704  1706     9 
 1700  1699  1704  1705     9 
 1700  1699  1704  1706     9 
 1699  1704  1706  1707     9 
 1699  1704  1706  1708     9 
 1705  1704  1706  1707     9 
 1705  1704  1706  1708     9 
 1704  1706  1708  1696     9 
 1704  1706  1708  1709     9 
 1707  1706  1708  1696     9 
 1707  1706  1708  1709     9 
 1691  1710  1712  1694     9 
 1691  1710  1712  1713     9 
 1691  1710  1712  1714     9 
 1711  1710  1712  1694     9 
 1711  1710  1712  1713     9 
 1711  1710  1712  1714     9 
 1715  1710  1712  1694     9 
 1715  1710  1712  1713     9 
 1715  1710  1712  1714     9 
 1691  1710  1715  1716     9 
 1711  1710  1715  1716     9 
 1712  1710  1715  1716     9 
 1710  1715  1716  1717     9 
 1710  1715  1716  1718     9 
 1710  1715  1716  1719     9 
 1715  1716  1719  1720     9 
 1717  1716  1719  1720     9 
 1718  1716  1719  1720     9 
 1716  1719  1720  1721     9 
 1716  1719  1720  1722     9 
 1716  1719  1720  1723     9 
 1719  1720  1723  1724     9 
 1719  1720  1723  1725     9 
 1719  1720  1723  1740     9 
 1721  1720  1723  1724     9 
 1721  1720  1723  1725     9 
 1721  1720  1723  1740     9 
 1722  1720  1723  1724     9 
 1722  1720  1723  1725     9 
 1722  1720  1723  1740     9 
 1720  1723  1725  1726     9 
 1724  1723  1725  1726     9 
 1740  1723  1725  1726     9 
 1720  1723  1740  1741     9 
 1720  1723  1740  1742     9 
 1720  1723  1740  1745     9 
 1724  1723  1740  1741     9 
 1724  1723  1740  1742     9 
 1724  1723  1740  1745     9 
 1725  1723  1740  1741     9 
 1725  1723  1740  1742     9 
 1725  1723  1740  1745     9 
 1723  1725  1726  1727     9 
 1723  1725  1726  1728     9 
 1723  1725  1726  1742     9 
 1725  1726  1728  1729     9 
 1725  1726  1728  1738     9 
 1727  1726  1728  1729     9 
 1727  1726  1728  1738     9 
 1742  1726  1728  1729     9 
 1742  1726  1728  1738     9 
 1725  1726  1742  1740     9 
 1725  1726  1742  1743     9 
 1725  1726  1742  1744     9 
 1727  1726  1742  1740     9 
 1727  1726  1742  1743     9 
 1727  1726  1742  1744     9 
 1728  1726  1742  1740     9 
 1728  1726  1742  1743     9 
 1728  1726  1742  1744     9 
 1726  1728  1729  1730     9 
 1726  1728  1729  1731     9 
 1738  1728  1729  1730     9 
 1738  1728  1729  1731     9 
 1726  1728  1738  1737     9 
 1726  1728  1738  1739     9 
 1729  1728  1738  1737     9 
 1729  1728  1738  1739     9 
 1728  1729  1731  1732     9 
 1728  1729  1731  1733     9 
 1730  1729  1731  1732     9 
 1730  1729  1731  1733     9 
 1729  1731  1733  1734     9 
 1729  1731  1733  1737     9 
 1732  1731  1733  1734     9 
 1732  1731  1733  1737     9 
 1731  1733  1734  1735     9 
 1731  1733  1734  1736     9 
 1737  1733  1734  1735     9 
 1737  1733  1734  1736     9 
 1731  1733  1737  1738     9 
 1734  1733  1737  1738     9 
 1733  1737  1738  1728     9 
 1733  1737  1738  1739     9 
 1723  1740  1742  1726     9 
 1723  1740  1742  1743     9 
 1723  1740  1742  1744     9 
 1741  1740  1742  1726     9 
 1741  1740  1742  1743     9 
 1741  1740  1742  1744     9 
 1745  1740  1742  1726     9 
 1745  1740  1742  1743     9 
 1745  1740  1742  1744     9 
 1723  1740  1745  1746     9 
 1741  1740  1745  1746     9 
 1742  1740  1745  1746     9 
 1740  1745  1746  1747     9 
 1740  1745  1746  1748     9 
 1740  1745  1746  1749     9 
 1745  1746  1749  1750     9 
 1747  1746  1749  1750     9 
 1748  1746  1749  1750     9 
 1746  1749  1750  1751     9 
 1746  1749  1750  1752     9 
 1746  1749  1750  1753     9 
 1749  1750  1753  1754     9 
 1749  1750  1753  1755     9 
 1749  1750  1753  1770     9 
 1751  1750  1753  1754     9 
 1751  1750  1753  1755     9 
 1751  1750  1753  1770     9 
 1752  1750  1753  1754     9 
 1752  1750  1753  1755     9 
 1752  1750  1753  1770     9 
 1750  1753  1755  1756     9 
 1754  1753  1755  1756     9 
 1770  1753  1755  1756     9 
 1750  1753  1770  1771     9 
 1750  1753  1770  1772     9 
 1750  1753  1770  1775     9 
 1754  1753  1770  1771     9 
 1754  1753  1770  1772     9 
 1754  1753  1770  1775     9 
 1755  1753  1770  1771     9 
 1755  1753  1770  1772     9 
 1755  1753  1770  1775     9 
 1753  1755  1756  1757     9 
 1753  1755  1756  1758     9 
 1753  1755  1756  1772     9 
 1755  1756  1758  1759     9 
 1755  1756  1758  1768     9 
 1757  1756  1758  1759     9 
 1757  1756  1758  1768     9 
 1772  1756  1758  1759     9 
 1772  1756  1758  1768     9 
 1755  1756  1772  1770     9 
 1755  1756  1772  1773     9 
 1755  1756  1772  1774     9 
 1757  1756  1772  1770     9 
 1757  1756  1772  1773     9 
 1757  1756  1772  1774     9 
 1758  1756  1772  1770     9 
 1758  1756  1772  1773     9 
 1758  1756  1772  1774     9 
 1756  1758  1759  1760     9 
 1756  1758  1759  1761     9 
 1768  1758  1759  1760     9 
 1768  1758  1759  1761     9 
 1756  1758  1768  1767     9 
 1756  1758  1768  1769     9 
 1759  1758  1768  1767     9 
 1759  1758  1768  1769     9 
 1758  1759  1761  1762     9 
 1758  1759  1761  1763     9 
 1760  1759  1761  1762     9 
 1760  1759  1761  1763     9 
 1759  1761  1763  1764     9 
 1759  1761  1763  1767     9 
 1762  1761  1763  1764     9 
 1762  1761  1763  1767     9 
 1761  1763  1764  1765     9 
 1761  1763  1764  1766     9 
 1767  1763  1764  1765     9 
 1767  1763  1764  1766     9 
 1761  1763  1767  1768     9 
 1764  1763  1767  1768     9 
 1763  1767  1768  1758     9 
 1763  1767  1768  1769     9 
 1753  1770  1772  1756     9 
 1753  1770  1772  1773     9 
 1753  1770  1772  1774     9 
 1771  1770  1772  1756     9 
 1771  1770  1772  1773     9 
 1771  1770  1772  1774     9 
 1775  1770  1772  1756     9 
 1775  1770  1772  1773     9 
 1775  1770  1772  1774     9 
 1753  1770  1775  1776     9 
 1771  1770  1775  1776     9 
 1772  1770  1775  1776     9 
 1770  1775  1776  1777     9 
 1770  1775  1776  1778     9 
 1770  1775  1776  1779     9 
 1775  1776  1779  1780     9 
 1777  1776  1779  1780     9 
 1778  1776  1779  1780     9 
 1776  1779  1780  1781     9 
 1776  1779  1780  1782     9 
 1776  1779  1780  1783     9 
 1779  1780  1783  1784     9 
 1779  1780  1783  1785     9 
 1779  1780  1783  1800     9 
 1781  1780  1783  1784     9 
 1781  1780  1783  1785     9 
 1781  1780  1783  1800     9 
 1782  1780  1783  1784     9 
 1782  1780  1783  1785     9 
 1782  1780  1783  1800     9 
 1780  1783  1785  1786     9 
 1784  1783  1785  1786     9 
 1800  1783  1785  1786     9 
 1780  1783  1800  1801     9 
 1780  1783  1800  1802     9 
 1780  1783  1800  1805     9 
 1784  1783  1800  1801     9 
 1784  1783  1800  1802     9 
 1784  1783  1800  1805     9 
 1785  1783  1800  1801     9 
 1785  1783  1800  1802     9 
 1785  1783  1800  1805     9 
 1783  1785  1786  1787     9 
 1783  1785  1786  1788     9 
 1783  1785  1786  1802     9 
 1785  1786  1788  1789     9 
 1785  1786  1788  1798     9 
 1787  1786  1788  1789     9 
 1787  1786  1788  1798     9 
 1802  1786  1788  1789     9 
 1802  1786  1788  1798     9 
 1785  1786  1802  1800     9 
 1785  1786  1802  1803     9 
 1785  1786  1802  1804     9 
 1787  1786  1802  1800     9 
 1787  1786  1802  1803     9 
 1787  1786  1802  1804     9 
 1788  1786  1802  1800     9 
 1788  1786  1802  1803     9 
 1788  1786  1802  1804     9 
 1786  1788  1789  1790     9 
 1786  1788  1789  1791     9 
 1798  1788  1789  1790     9 
 1798  1788  1789  1791     9 
 1786  1788  1798  1797     9 
 1786  1788  1798  1799     9 
 1789  1788  1798  1797     9 
 1789  1788  1798  1799     9 
 1788  1789  1791  1792     9 
 1788  1789  1791  1793     9 
 1790  1789  1791  1792     9 
 1790  1789  1791  1793     9 
 1789  1791  1793  1794     9 
 1789  1791  1793  1797     9 
 1792  1791  1793  1794     9 
 1792  1791  1793  1797     9 
 1791  1793  1794  1795     9 
 1791  1793  1794  1796     9 
 1797  1793  1794  1795     9 
 1797  1793  1794  1796     9 
 1791  1793  1797  1798     9 
 1794  1793  1797  1798     9 
 1793  1797  1798  1788     9 
 1793  1797  1798  1799     9 
 1783  1800  1802  1786     9 
 1783  1800  1802  1803     9 
 1783  1800  1802  1804     9 
 1801  1800  1802  1786     9 
 1801  1800  1802  1803     9 
 1801  1800  1802  1804     9 
 1805  1800  1802  1786     9 
 1805  1800  1802  1803     9 
 1805  1800  1802  1804     9 
 1783  1800  1805  1806     9 
 1801  1800  1805  1806     9 
 1802  1800  1805  1806     9 
 1800  1805  1806  1807     9 
 1800  1805  1806  1808     9 
 1800  1805  1806  1809     9 
 1805  1806  1809  1810     9 
 1807  1806  1809  1810     9 
 1808  1806  1809  1810     9 
 1806  1809  1810  1811     9 
 1806  1809  1810  1812     9 
 1806  1809  1810  1813     9 
 1809  1810  1813  1814     9 
 1809  1810  1813  1815     9 
 1809  1810  1813  1833     9 
 1811  1810  1813  1814     9 
 1811  1810  1813  1815     9 
 1811  1810  1813  1833     9 
 1812  1810  1813  1814     9 
 1812  1810  1813  1815     9 
 1812  1810  1813  1833     9 
 1810  1813  1815  1816     9 
 1814  1813  1815  1816     9 
 1833  1813  1815  1816     9 
 1810  1813  1833  1834     9 
 1810  1813  1833  1835     9 
 1810  1813  1833  1838     9 
 1814  1813  1833  1834     9 
 1814  1813  1833  1835     9 
 1814  1813  1833  1838     9 
 1815  1813  1833  1834     9 
 1815  1813  1833  1835     9 
 1815  1813  1833  1838     9 
 1813  1815  1816  1817     9 
 1813  1815  1816  1818     9 
 1813  1815  1816  1835     9 
 1815  1816  1818  1819     9 
 1815  1816  1818  1832     9 
 1817  1816  1818  1819     9 
 1817  1816  1818  1832     9 
 1835  1816  1818  1819     9 
 1835  1816  1818  1832     9 
 1815  1816  1835  1833     9 
 1815  1816  1835  1836     9 
 1815  1816  1835  1837     9 
 1817  1816  1835  1833     9 
 1817  1816  1835  1836     9 
 1817  1816  1835  1837     9 
 1818  1816  1835  1833     9 
 1818  1816  1835  1836     9 
 1818  1816  1835  1837     9 
 1816  1818  1819  1820     9 
 1816  1818  1819  1821     9 
 1832  1818  1819  1820     9 
 1832  1818  1819  1821     9 
 1816  1818  1832  1822     9 
 1816  1818  1832  1831     9 
 1819  1818  1832  1822     9 
 1819  1818  1832  1831     9 
 1818  1819  1821  1822     9 
 1820  1819  1821  1822     9 
 1819  1821  1822  1823     9 
 1819  1821  1822  1832     9 
 1821  1822  1823  1824     9 
 1821  1822  1823  1825     9 
 1832  1822  1823  1824     9 
 1832  1822  1823  1825     9 
 1821  1822  1832  1818     9 
 1821  1822  1832  1831     9 
 1823  1822  1832  1818     9 
 1823  1822  1832  1831     9 
 1822  1823  1825  1826     9 
 1822  1823  1825  1827     9 
 1824  1823  1825  1826     9 
 1824  1823  1825  1827     9 
 1823  1825  1827  1828     9 
 1823  1825  1827  1831     9 
 1826  1825  1827  1828     9 
 1826  1825  1827  1831     9 
 1825  1827  1828  1829     9 
 1825  1827  1828  1830     9 
 1831  1827  1828  1829     9 
 1831  1827  1828  1830     9 
 1825  1827  1831  1832     9 
 1828  1827  1831  1832     9 
 1827  1831  1832  1818     9 
 1827  1831  1832  1822     9 
 1813  1833  1835  1816     9 
 1813  1833  1835  1836     9 
 1813  1833  1835  1837     9 
 1834  1833  1835  1816     9 
 1834  1833  1835  1836     9 
 1834  1833  1835  1837     9 
 1838  1833  1835  1816     9 
 1838  1833  1835  1836     9 
 1838  1833  1835  1837     9 
 1813  1833  1838  1839     9 
 1834  1833  1838  1839     9 
 1835  1833  1838  1839     9 
 1833  1838  1839  1840     9 
 1833  1838  1839  1841     9 
 1833  1838  1839  1842     9 
 1838  1839  1842  1843     9 
 1840  1839  1842  1843     9 
 1841  1839  1842  1843     9 
 1839  1842  1843  1844     9 
 1839  1842  1843  1845     9 
 1839  1842  1843  1846     9 
 1842  1843  1846  1847     9 
 1842  1843  1846  1848     9 
 1842  1843  1846  1863     9 
 1844  1843  1846  1847     9 
 1844  1843  1846  1848     9 
 1844  1843  1846  1863     9 
 1845  1843  1846  1847     9 
 1845  1843  1846  1848     9 
 1845  1843  1846  1863     9 
 1843  1846  1848  1849     9 
 1847  1846  1848  1849     9 
 1863  1846  1848  1849     9 
 1843  1846  1863  1864     9 
 1843  1846  1863  1865     9 
 1843  1846  1863  1868     9 
 1847  1846  1863  1864     9 
 1847  1846  1863  1865     9 
 1847  1846  1863  1868     9 
 1848  1846  1863  1864     9 
 1848  1846  1863  1865     9 
 1848  1846  1863  1868     9 
 1846  1848  1849  1850     9 
 1846  1848  1849  1851     9 
 1846  1848  1849  1865     9 
 1848  1849  1851  1852     9 
 1848  1849  1851  1861     9 
 1850  1849  1851  1852     9 
 1850  1849  1851  1861     9 
 1865  1849  1851  1852     9 
 1865  1849  1851  1861     9 
 1848  1849  1865  1863     9 
 1848  1849  1865  1866     9 
 1848  1849  1865  1867     9 
 1850  1849  1865  1863     9 
 1850  1849  1865  1866     9 
 1850  1849  1865  1867     9 
 1851  1849  1865  1863     9 
 1851  1849  1865  1866     9 
 1851  1849  1865  1867     9 
 1849  1851  1852  1853     9 
 1849  1851  1852  1854     9 
 1861  1851  1852  1853     9 
 1861  1851  1852  1854     9 
 1849  1851  1861  1860     9 
 1849  1851  1861  1862     9 
 1852  1851  1861  1860     9 
 1852  1851  1861  1862     9 
 1851  1852  1854  1855     9 
 1851  1852  1854  1856     9 
 1853  1852  1854  1855     9 
 1853  1852  1854  1856     9 
 1852  1854  1856  1857     9 
 1852  1854  1856  1860     9 
 1855  1854  1856  1857     9 
 1855  1854  1856  1860     9 
 1854  1856  1857  1858     9 
 1854  1856  1857  1859     9 
 1860  1856  1857  1858     9 
 1860  1856  1857  1859     9 
 1854  1856  1860  1861     9 
 1857  1856  1860  1861     9 
 1856  1860  1861  1851     9 
 1856  1860  1861  1862     9 
 1846  1863  1865  1849     9 
 1846  1863  1865  1866     9 
 1846  1863  1865  1867     9 
 1864  1863  1865  1849     9 
 1864  1863  1865  1866     9 
 1864  1863  1865  1867     9 
 1868  1863  1865  1849     9 
 1868  1863  1865  1866     9 
 1868  1863  1865  1867     9 
 1846  1863  1868  1869     9 
 1864  1863  1868  1869     9 
 1865  1863  1868  1869     9 
 1863  1868  1869  1870     9 
 1863  1868  1869  1871     9 
 1863  1868  1869  1872     9 
 1868  1869  1872  1873     9 
 1870  1869  1872  1873     9 
 1871  1869  1872  1873     9 
 1869  1872  1873  1874     9 
 1869  1872  1873  1875     9 
 1869  1872  1873  1876     9 
 1872  1873  1876  1877     9 
 1872  1873  1876  1878     9 
 1872  1873  1876  1895     9 
 1874  1873  1876  1877     9 
 1874  1873  1876  1878     9 
 1874  1873  1876  1895     9 
 1875  1873  1876  1877     9 
 1875  1873  1876  1878     9 
 1875  1873  1876  1895     9 
 1873  1876  1878  1879     9 
 1877  1876  1878  1879     9 
 1895  1876  1878  1879     9 
 1873  1876  1895  1896     9 
 1873  1876  1895  1897     9 
 1873  1876  1895  1900     9 
 1877  1876  1895  1896     9 
 1877  1876  1895  1897     9 
 1877  1876  1895  1900     9 
 1878  1876  1895  1896     9 
 1878  1876  1895  1897     9 
 1878  1876  1895  1900     9 
 1876  1878  1879  1880     9 
 1876  1878  1879  1881     9 
 1876  1878  1879  1897     9 
 1878  1879  1881  1882     9 
 1878  1879  1881  1894     9 
 1880  1879  1881  1882     9 
 1880  1879  1881  1894     9 
 1897  1879  1881  1882     9 
 1897  1879  1881  1894     9 
 1878  1879  1897  1895     9 
 1878  1879  1897  1898     9 
 1878  1879  1897  1899     9 
 1880  1879  1897  1895     9 
 1880  1879  1897  1898     9 
 1880  1879  1897  1899     9 
 1881  1879  1897  1895     9 
 1881  1879  1897  1898     9 
 1881  1879  1897  1899     9 
 1879  1881  1882  1883     9 
 1879  1881  1882  1884     9 
 1894  1881  1882  1883     9 
 1894  1881  1882  1884     9 
 1879  1881  1894  1885     9 
 1879  1881  1894  1893     9 
 1882  1881  1894  1885     9 
 1882  1881  1894  1893     9 
 1881  1882  1884  1885     9 
 1883  1882  1884  1885     9 
 1882  1884  1885  1886     9 
 1882  1884  1885  1894     9 
 1884  1885  1886  1887     9 
 1884  1885  1886  1890     9 
 1894  1885  1886  1887     9 
 1894  1885  1886  1890     9 
 1884  1885  1894  1881     9 
 1884  1885  1894  1893     9 
 1886  1885  1894  1881     9 
 1886  1885  1894  1893     9 
 1885  1886  1887  1888     9 
 1885  1886  1887  1889     9 
 1890  1886  1887  1888     9 
 1890  1886  1887  1889     9 
 1885  1886  1890  1891     9 
 1887  1886  1890  1891     9 
 1886  1890  1891  1892     9 
 1886  1890  1891  1893     9 
 1890  1891  1893  1894     9 
 1892  1891  1893  1894     9 
 1891  1893  1894  1881     9 
 1891  1893  1894  1885     9 
 1876  1895  1897  1879     9 
 1876  1895  1897  1898     9 
 1876  1895  1897  1899     9 
 1896  1895  1897  1879     9 
 1896  1895  1897  1898     9 
 1896  1895  1897  1899     9 
 1900  1895  1897  1879     9 
 1900  1895  1897  1898     9 
 1900  1895  1897  1899     9 
 1876  1895  1900  1901     9 
 1896  1895  1900  1901     9 
 1897  1895  1900  1901     9 
 1895  1900  1901  1902     9 
 1895  1900  1901  1903     9 
 1895  1900  1901  1904     9 
 1900  1901  1904  1905     9 
 1902  1901  1904  1905     9 
 1903  1901  1904  1905     9 
 1901  1904  1905  1906     9 
 1901  1904  1905  1907     9 
 1901  1904  1905  1908     9 
 1904  1905  1908  1909     9 
 1904  1905  1908  1910     9 
 1904  1905  1908  1925     9 
 1906  1905  1908  1909     9 
 1906  1905  1908  1910     9 
 1906  1905  1908  1925     9 
 1907  1905  1908  1909     9 
 1907  1905  1908  1910     9 
 1907  1905  1908  1925     9 
 1905  1908  1910  1911     9 
 1909  1908  1910  1911     9 
 1925  1908  1910  1911     9 
 1905  1908  1925  1926     9 
 1905  1908  1925  1927     9 
 1905  1908  1925  1930     9 
 1909  1908  1925  1926     9 
 1909  1908  1925  1927     9 
 1909  1908  1925  1930     9 
 1910  1908  1925  1926     9 
 1910  1908  1925  1927     9 
 1910  1908  1925  1930     9 
 1908  1910  1911  1912     9 
 1908  1910  1911  1913     9 
 1908  1910  1911  1927     9 
 1910  1911  1913  1914     9 
 1910  1911  1913  1923     9 
 1912  1911  1913  1914     9 
 1912  1911  1913  1923     9 
 1927  1911  1913  1914     9 
 1927  1911  1913  1923     9 
 1910  1911  1927  1925     9 
 1910  1911  1927  1928     9 
 1910  1911  1927  1929     9 
 1912  1911  1927  1925     9 
 1912  1911  1927  1928     9 
 1912  1911  1927  1929     9 
 1913  1911  1927  1925     9 
 1913  1911  1927  1928     9 
 1913  1911  1927  1929     9 
 1911  1913  1914  1915     9 
 1911  1913  1914  1916     9 
 1923  1913  1914  1915     9 
 1923  1913  1914  1916     9 
 1911  1913  1923  1922     9 
 1911  1913  1923  1924     9 
 1914  1913  1923  1922     9 
 1914  1913  1923  1924     9 
 1913  1914  1916  1917     9 
 1913  1914  1916  1918     9 
 1915  1914  1916  1917     9 
 1915  1914  1916  1918     9 
 1914  1916  1918  1919     9 
 1914  1916  1918  1922     9 
 1917  1916  1918  1919     9 
 1917  1916  1918  1922     9 
 1916  1918  1919  1920     9 
 1916  1918  1919  1921     9 
 1922  1918  1919  1920     9 
 1922  1918  1919  1921     9 
 1916  1918  1922  1923     9 
 1919  1918  1922  1923     9 
 1918  1922  1923  1913     9 
 1918  1922  1923  1924     9 
 1908  1925  1927  1911     9 
 1908  1925  1927  1928     9 
 1908  1925  1927  1929     9 
 1926  1925  1927  1911     9 
 1926  1925  1927  1928     9 
 1926  1925  1927  1929     9 
 1930  1925  1927  1911     9 
 1930  1925  1927  1928     9 
 1930  1925  1927  1929     9 
 1908  1925  1930  1931     9 
 1926  1925  1930  1931     9 
 1927  1925  1930  1931     9 
 1925  1930  1931  1932     9 
 1925  1930  1931  1933     9 
 1925  1930  1931  1934     9 
 1930  1931  1934  1935     9 
 1932  1931  1934  1935     9 
 1933  1931  1934  1935     9 
 1931  1934  1935  1936     9 
 1931  1934  1935  1937     9 
 1931  1934  1935  1938     9 
 1934  1935  1938  1939     9 
 1934  1935  1938  1940     9 
 1934  1935  1938  1955     9 
 1936  1935  1938  1939     9 
 1936  1935  1938  1940     9 
 1936  1935  1938  1955     9 
 1937  1935  1938  1939     9 
 1937  1935  1938  1940     9 
 1937  1935  1938  1955     9 
 1935  1938  1940  1941     9 
 1939  1938  1940  1941     9 
 1955  1938  1940  1941     9 
 1935  1938  1955  1956     9 
 1935  1938  1955  1957     9 
 1935  1938  1955  1960     9 
 1939  1938  1955  1956     9 
 1939  1938  1955  1957     9 
 1939  1938  1955  1960     9 
 1940  1938  1955  1956     9 
 1940  1938  1955  1957     9 
 1940  1938  1955  1960     9 
 1938  1940  1941  1942     9 
 1938  1940  1941  1943     9 
 1938  1940  1941  1957     9 
 1940  1941  1943  1944     9 
 1940  1941  1943  1953     9 
 1942  1941  1943  1944     9 
 1942  1941  1943  1953     9 
 1957  1941  1943  1944     9 
 1957  1941  1943  1953     9 
 1940  1941  1957  1955     9 
 1940  1941  1957  1958     9 
 1940  1941  1957  1959     9 
 1942  1941  1957  1955     9 
 1942  1941  1957  1958     9 
 1942  1941  1957  1959     9 
 1943  1941  1957  1955     9 
 1943  1941  1957  1958     9 
 1943  1941  1957  1959     9 
 1941  1943  1944  1945     9 
 1941  1943  1944  1946     9 
 1953  1943  1944  1945     9 
 1953  1943  1944  1946     9 
 1941  1943  1953  1952     9 
 1941  1943  1953  1954     9 
 1944  1943  1953  1952     9 
 1944  1943  1953  1954     9 
 1943  1944  1946  1947     9 
 1943  1944  1946  1948     9 
 1945  1944  1946  1947     9 
 1945  1944  1946  1948     9 
 1944  1946  1948  1949     9 
 1944  1946  1948  1952     9 
 1947  1946  1948  1949     9 
 1947  1946  1948  1952     9 
 1946  1948  1949  1950     9 
 1946  1948  1949  1951     9 
 1952  1948  1949  1950     9 
 1952  1948  1949  1951     9 
 1946  1948  1952  1953     9 
 1949  1948  1952  1953     9 
 1948  1952  1953  1943     9 
 1948  1952  1953  1954     9 
 1938  1955  1957  1941     9 
 1938  1955  1957  1958     9 
 1938  1955  1957  1959     9 
 1956  1955  1957  1941     9 
 1956  1955  1957  1958     9 
 1956  1955  1957  1959     9 
 1960  1955  1957  1941     9 
 1960  1955  1957  1958     9 
 1960  1955  1957  1959     9 
 1938  1955  1960  1961     9 
 1956  1955  1960  1961     9 
 1957  1955  1960  1961     9 
 1955  1960  1961  1962     9 
 1955  1960  1961  1963     9 
 1955  1960  1961  1964     9 
 1960  1961  1964  1965     9 
 1962  1961  1964  1965     9 
 1963  1961  1964  1965     9 
 1961  1964  1965  1966     9 
 1961  1964  1965  1967     9 
 1961  1964  1965  1968     9 
 1964  1965  1968  1969     9 
 1964  1965  1968  1970     9 
 1964  1965  1968  1987     9 
 1966  1965  1968  1969     9 
 1966  1965  1968  1970     9 
 1966  1965  1968  1987     9 
 1967  1965  1968  1969     9 
 1967  1965  1968  1970     9 
 1967  1965  1968  1987     9 
 1965  1968  1970  1971     9 
 1969  1968  1970  1971     9 
 1987  1968  1970  1971     9 
 1965  1968  1987  1988     9 
 1965  1968  1987  1989     9 
 1965  1968  1987  1992     9 
 1969  1968  1987  1988     9 
 1969  1968  1987  1989     9 
 1969  1968  1987  1992     9 
 1970  1968  1987  1988     9 
 1970  1968  1987  1989     9 
 1970  1968  1987  1992     9 
 1968  1970  1971  1972     9 
 1968  1970  1971  1973     9 
 1968  1970  1971  1989     9 
 1970  1971  1973  1974     9 
 1970  1971  1973  1985     9 
 1972  1971  1973  1974     9 
 1972  1971  1973  1985     9 
 1989  1971  1973  1974     9 
 1989  1971  1973  1985     9 
 1970  1971  1989  1987     9 
 1970  1971  1989  1990     9 
 1970  1971  1989  1991     9 
 1972  1971  1989  1987     9 
 1972  1971  1989  1990     9 
 1972  1971  1989  1991     9 
 1973  1971  1989  1987     9 
 1973  1971  1989  1990     9 
 1973  1971  1989  1991     9 
 1971  1973  1974  1975     9 
 1971  1973  1974  1976     9 
 1985  1973  1974  1975     9 
 1985  1973  1974  1976     9 
 1971  1973  1985  1983     9 
 1971  1973  1985  1986     9 
 1974  1973  1985  1983     9 
 1974  1973  1985  1986     9 
 1973  1974  1976  1977     9 
 1973  1974  1976  1981     9 
 1975  1974  1976  1977     9 
 1975  1974  1976  1981     9 
 1974  1976  1977  1978     9 
 1974  1976  1977  1979     9 
 1974  1976  1977  1980     9 
 1981  1976  1977  1978     9 
 1981  1976  1977  1979     9 
 1981  1976  1977  1980     9 
 1974  1976  1981  1982     9 
 1974  1976  1981  1983     9 
 1977  1976  1981  1982     9 
 1977  1976  1981  1983     9 
 1976  1981  1983  1984     9 
 1976  1981  1983  1985     9 
 1982  1981  1983  1984     9 
 1982  1981  1983  1985     9 
 1981  1983  1985  1973     9 
 1981  1983  1985  1986     9 
 1984  1983  1985  1973     9 
 1984  1983  1985  1986     9 
 1968  1987  1989  1971     9 
 1968  1987  1989  1990     9 
 1968  1987  1989  1991     9 
 1988  1987  1989  1971     9 
 1988  1987  1989  1990     9 
 1988  1987  1989  1991     9 
 1992  1987  1989  1971     9 
 1992  1987  1989  1990     9 
 1992  1987  1989  1991     9 
 1968  1987  1992  1993     9 
 1988  1987  1992  1993     9 
 1989  1987  1992  1993     9 
 1987  1992  1993  1994     9 
 1987  1992  1993  1995     9 
 1987  1992  1993  1996     9 
 1992  1993  1996  1997     9 
 1994  1993  1996  1997     9 
 1995  1993  1996  1997     9 
 1993  1996  1997  1998     9 
 1993  1996  1997  1999     9 
 1993  1996  1997  2000     9 
 1996  1997  2000  2001     9 
 1996  1997  2000  2002     9 
 1996  1997  2000  2020     9 
 1998  1997  2000  2001     9 
 1998  1997  2000  2002     9 
 1998  1997  2000  2020     9 
 1999  1997  2000  2001     9 
 1999  1997  2000  2002     9 
 1999  1997  2000  2020     9 
 1997  2000  2002  2003     9 
 2001  2000  2002  2003     9 
 2020  2000  2002  2003     9 
 1997  2000  2020  2021     9 
 1997  2000  2020  2022     9 
 1997  2000  2020  2025     9 
 2001  2000  2020  2021     9 
 2001  2000  2020  2022     9 
 2001  2000  2020  2025     9 
 2002  2000  2020  2021     9 
 2002  2000  2020  2022     9 
 2002  2000  2020  2025     9 
 2000  2002  2003  2004     9 
 2000  2002  2003  2005     9 
 2000  2002  2003  2022     9 
 2002  2003  2005  2006     9 
 2002  2003  2005  2019     9 
 2004  2003  2005  2006     9 
 2004  2003  2005  2019     9 
 2022  2003  2005  2006     9 
 2022  2003  2005  2019     9 
 2002  2003  2022  2020     9 
 2002  2003  2022  2023     9 
 2002  2003  2022  2024     9 
 2004  2003  2022  2020     9 
 2004  2003  2022  2023     9 
 2004  2003  2022  2024     9 
 2005  2003  2022  2020     9 
 2005  2003  2022  2023     9 
 2005  2003  2022  2024     9 
 2003  2005  2006  2007     9 
 2003  2005  2006  2008     9 
 2019  2005  2006  2007     9 
 2019  2005  2006  2008     9 
 2003  2005  2019  2009     9 
 2003  2005  2019  2018     9 
 2006  2005  2019  2009     9 
 2006  2005  2019  2018     9 
 2005  2006  2008  2009     9 
 2007  2006  2008  2009     9 
 2006  2008  2009  2010     9 
 2006  2008  2009  2019     9 
 2008  2009  2010  2011     9 
 2008  2009  2010  2012     9 
 2019  2009  2010  2011     9 
 2019  2009  2010  2012     9 
 2008  2009  2019  2005     9 
 2008  2009  2019  2018     9 
 2010  2009  2019  2005     9 
 2010  2009  2019  2018     9 
 2009  2010  2012  2013     9 
 2009  2010  2012  2014     9 
 2011  2010  2012  2013     9 
 2011  2010  2012  2014     9 
 2010  2012  2014  2015     9 
 2010  2012  2014  2018     9 
 2013  2012  2014  2015     9 
 2013  2012  2014  2018     9 
 2012  2014  2015  2016     9 
 2012  2014  2015  2017     9 
 2018  2014  2015  2016     9 
 2018  2014  2015  2017     9 
 2012  2014  2018  2019     9 
 2015  2014  2018  2019     9 
 2014  2018  2019  2005     9 
 2014  2018  2019  2009     9 
 2000  2020  2022  2003     9 
 2000  2020  2022  2023     9 
 2000  2020  2022  2024     9 
 2021  2020  2022  2003     9 
 2021  2020  2022  2023     9 
 2021  2020  2022  2024     9 
 2025  2020  2022  2003     9 
 2025  2020  2022  2023     9 
 2025  2020  2022  2024     9 
 2000  2020  2025  2026     9 
 2021  2020  2025  2026     9 
 2022  2020  2025  2026     9 
 2020  2025  2026  2027     9 
 2020  2025  2026  2028     9 
 2020  2025  2026  2029     9 
 2025  2026  2029  2030     9 
 2027  2026  2029  2030     9 
 2028  2026  2029  2030     9 
 2026  2029  2030  2031     9 
 2026  2029  2030  2032     9 
 2026  2029  2030  2033     9 
 2029  2030  2033  2034     9 
 2029  2030  2033  2035     9 
 2029  2030  2033  2053     9 
 2031  2030  2033  2034     9 
 2031  2030  2033  2035     9 
 2031  2030  2033  2053     9 
 2032  2030  2033  2034     9 
 2032  2030  2033  2035     9 
 2032  2030  2033  2053     9 
 2030  2033  2035  2036     9 
 2034  2033  2035  2036     9 
 2053  2033  2035  2036     9 
 2030  2033  2053  2054     9 
 2030  2033  2053  2055     9 
 2030  2033  2053  2058     9 
 2034  2033  2053  2054     9 
 2034  2033  2053  2055     9 
 2034  2033  2053  2058     9 
 2035  2033  2053  2054     9 
 2035  2033  2053  2055     9 
 2035  2033  2053  2058     9 
 2033  2035  2036  2037     9 
 2033  2035  2036  2038     9 
 2033  2035  2036  2055     9 
 2035  2036  2038  2039     9 
 2035  2036  2038  2052     9 
 2037  2036  2038  2039     9 
 2037  2036  2038  2052     9 
 2055  2036  2038  2039     9 
 2055  2036  2038  2052     9 
 2035  2036  2055  2053     9 
 2035  2036  2055  2056     9 
 2035  2036  2055  2057     9 
 2037  2036  2055  2053     9 
 2037  2036  2055  2056     9 
 2037  2036  2055  2057     9 
 2038  2036  2055  2053     9 
 2038  2036  2055  2056     9 
 2038  2036  2055  2057     9 
 2036  2038  2039  2040     9 
 2036  2038  2039  2041     9 
 2052  2038  2039  2040     9 
 2052  2038  2039  2041     9 
 2036  2038  2052  2042     9 
 2036  2038  2052  2051     9 
 2039  2038  2052  2042     9 
 2039  2038  2052  2051     9 
 2038  2039  2041  2042     9 
 2040  2039  2041  2042     9 
 2039  2041  2042  2043     9 
 2039  2041  2042  2052     9 
 2041  2042  2043  2044     9 
 2041  2042  2043  2045     9 
 2052  2042  2043  2044     9 
 2052  2042  2043  2045     9 
 2041  2042  2052  2038     9 
 2041  2042  2052  2051     9 
 2043  2042  2052  2038     9 
 2043  2042  2052  2051     9 
 2042  2043  2045  2046     9 
 2042  2043  2045  2047     9 
 2044  2043  2045  2046     9 
 2044  2043  2045  2047     9 
 2043  2045  2047  2048     9 
 2043  2045  2047  2051     9 
 2046  2045  2047  2048     9 
 2046  2045  2047  2051     9 
 2045  2047  2048  2049     9 
 2045  2047  2048  2050     9 
 2051  2047  2048  2049     9 
 2051  2047  2048  2050     9 
 2045  2047  2051  2052     9 
 2048  2047  2051  2052     9 
 2047  2051  2052  2038     9 
 2047  2051  2052  2042     9 
 2033  2053  2055  2036     9 
 2033  2053  2055  2056     9 
 2033  2053  2055  2057     9 
 2054  2053  2055  2036     9 
 2054  2053  2055  2056     9 
 2054  2053  2055  2057     9 
 2058  2053  2055  2036     9 
 2058  2053  2055  2056     9 
 2058  2053  2055  2057     9 
 2033  2053  2058  2059     9 
 2054  2053  2058  2059     9 
 2055  2053  2058  2059     9 
 2053  2058  2059  2060     9 
 2053  2058  2059  2061     9 
 2053  2058  2059  2062     9 
 2058  2059  2062  2063     9 
 2060  2059  2062  2063     9 
 2061  2059  2062  2063     9 
 2059  2062  2063  2064     9 
 2059  2062  2063  2065     9 
 2059  2062  2063  2066     9 
 2062  2063  2066  2067     9 
 2062  2063  2066  2068     9 
 2062  2063  2066  2086     9 
 2064  2063  2066  2067     9 
 2064  2063  2066  2068     9 
 2064  2063  2066  2086     9 
 2065  2063  2066  2067     9 
 2065  2063  2066  2068     9 
 2065  2063  2066  2086     9 
 2063  2066  2068  2069     9 
 2067  2066  2068  2069     9 
 2086  2066  2068  2069     9 
 2063  2066  2086  2087     9 
 2063  2066  2086  2088     9 
 2063  2066  2086  2091     9 
 2067  2066  2086  2087     9 
 2067  2066  2086  2088     9 
 2067  2066  2086  2091     9 
 2068  2066  2086  2087     9 
 2068  2066  2086  2088     9 
 2068  2066  2086  2091     9 
 2066  2068  2069  2070     9 
 2066  2068  2069  2071     9 
 2066  2068  2069  2088     9 
 2068  2069  2071  2072     9 
 2068  2069  2071  2085     9 
 2070  2069  2071  2072     9 
 2070  2069  2071  2085     9 
 2088  2069  2071  2072     9 
 2088  2069  2071  2085     9 
 2068  2069  2088  2086     9 
 2068  2069  2088  2089     9 
 2068  2069  2088  2090     9 
 2070  2069  2088  2086     9 
 2070  2069  2088  2089     9 
 2070  2069  2088  2090     9 
 2071  2069  2088  2086     9 
 2071  2069  2088  2089     9 
 2071  2069  2088  2090     9 
 2069  2071  2072  2073     9 
 2069  2071  2072  2074     9 
 2085  2071  2072  2073     9 
 2085  2071  2072  2074     9 
 2069  2071  2085  2075     9 
 2069  2071  2085  2084     9 
 2072  2071  2085  2075     9 
 2072  2071  2085  2084     9 
 2071  2072  2074  2075     9 
 2073  2072  2074  2075     9 
 2072  2074  2075  2076     9 
 2072  2074  2075  2085     9 
 2074  2075  2076  2077     9 
 2074  2075  2076  2078     9 
 2085  2075  2076  2077     9 
 2085  2075  2076  2078     9 
 2074  2075  2085  2071     9 
 2074  2075  2085  2084     9 
 2076  2075  2085  2071     9 
 2076  2075  2085  2084     9 
 2075  2076  2078  2079     9 
 2075  2076  2078  2080     9 
 2077  2076  2078  2079     9 
 2077  2076  2078  2080     9 
 2076  2078  2080  2081     9 
 2076  2078  2080  2084     9 
 2079  2078  2080  2081     9 
 2079  2078  2080  2084     9 
 2078  2080  2081  2082     9 
 2078  2080  2081  2083     9 
 2084  2080  2081  2082     9 
 2084  2080  2081  2083     9 
 2078  2080  2084  2085     9 
 2081  2080  2084  2085     9 
 2080  2084  2085  2071     9 
 2080  2084  2085  2075     9 
 2066  2086  2088  2069     9 
 2066  2086  2088  2089     9 
 2066  2086  2088  2090     9 
 2087  2086  2088  2069     9 
 2087  2086  2088  2089     9 
 2087  2086  2088  2090     9 
 2091  2086  2088  2069     9 
 2091  2086  2088  2089     9 
 2091  2086  2088  2090     9 
 2066  2086  2091  2092     9 
 2087  2086  2091  2092     9 
 2088  2086  2091  2092     9 
 2086  2091  2092  2093     9 
 2086  2091  2092  2094     9 
 2086  2091  2092  2095     9 
 2091  2092  2095  2096     9 
 2093  2092  2095  2096     9 
 2094  2092  2095  2096     9 
 2092  2095  2096  2097     9 
 2092  2095  2096  2098     9 
 2092  2095  2096  2099     9 
 2095  2096  2099  2100     9 
 2095  2096  2099  2101     9 
 2095  2096  2099  2118     9 
 2097  2096  2099  2100     9 
 2097  2096  2099  2101     9 
 2097  2096  2099  2118     9 
 2098  2096  2099  2100     9 
 2098  2096  2099  2101     9 
 2098  2096  2099  2118     9 
 2096  2099  2101  2102     9 
 2100  2099  2101  2102     9 
 2118  2099  2101  2102     9 
 2096  2099  2118  2119     9 
 2096  2099  2118  2120     9 
 2096  2099  2118  2123     9 
 2100  2099  2118  2119     9 
 2100  2099  2118  2120     9 
 2100  2099  2118  2123     9 
 2101  2099  2118  2119     9 
 2101  2099  2118  2120     9 
 2101  2099  2118  2123     9 
 2099  2101  2102  2103     9 
 2099  2101  2102  2104     9 
 2099  2101  2102  2120     9 
 2101  2102  2104  2105     9 
 2101  2102  2104  2117     9 
 2103  2102  2104  2105     9 
 2103  2102  2104  2117     9 
 2120  2102  2104  2105     9 
 2120  2102  2104  2117     9 
 2101  2102  2120  2118     9 
 2101  2102  2120  2121     9 
 2101  2102  2120  2122     9 
 2103  2102  2120  2118     9 
 2103  2102  2120  2121     9 
 2103  2102  2120  2122     9 
 2104  2102  2120  2118     9 
 2104  2102  2120  2121     9 
 2104  2102  2120  2122     9 
 2102  2104  2105  2106     9 
 2102  2104  2105  2107     9 
 2117  2104  2105  2106     9 
 2117  2104  2105  2107     9 
 2102  2104  2117  2108     9 
 2102  2104  2117  2116     9 
 2105  2104  2117  2108     9 
 2105  2104  2117  2116     9 
 2104  2105  2107  2108     9 
 2106  2105  2107  2108     9 
 2105  2107  2108  2109     9 
 2105  2107  2108  2117     9 
 2107  2108  2109  2110     9 
 2107  2108  2109  2113     9 
 2117  2108  2109  2110     9 
 2117  2108  2109  2113     9 
 2107  2108  2117  2104     9 
 2107  2108  2117  2116     9 
 2109  2108  2117  2104     9 
 2109  2108  2117  2116     9 
 2108  2109  2110  2111     9 
 2108  2109  2110  2112     9 
 2113  2109  2110  2111     9 
 2113  2109  2110  2112     9 
 2108  2109  2113  2114     9 
 2110  2109  2113  2114     9 
 2109  2113  2114  2115     9 
 2109  2113  2114  2116     9 
 2113  2114  2116  2117     9 
 2115  2114  2116  2117     9 
 2114  2116  2117  2104     9 
 2114  2116  2117  2108     9 
 2099  2118  2120  2102     9 
 2099  2118  2120  2121     9 
 2099  2118  2120  2122     9 
 2119  2118  2120  2102     9 
 2119  2118  2120  2121     9 
 2119  2118  2120  2122     9 
 2123  2118  2120  2102     9 
 2123  2118  2120  2121     9 
 2123  2118  2120  2122     9 
 2099  2118  2123  2124     9 
 2119  2118  2123  2124     9 
 2120  2118  2123  2124     9 
 2118  2123  2124  2125     9 
 2118  2123  2124  2126     9 
 2118  2123  2124  2127     9 
 2123  2124  2127  2128     9 
 2125  2124  2127  2128     9 
 2126  2124  2127  2128     9 
 2124  2127  2128  2129     9 
 2124  2127  2128  2130     9 
 2124  2127  2128  2131     9 
 2127  2128  2131  2132     9 
 2127  2128  2131  2133     9 
 2127  2128  2131  2151     9 
 2129  2128  2131  2132     9 
 2129  2128  2131  2133     9 
 2129  2128  2131  2151     9 
 2130  2128  2131  2132     9 
 2130  2128  2131  2133     9 
 2130  2128  2131  2151     9 
 2128  2131  2133  2134     9 
 2132  2131  2133  2134     9 
 2151  2131  2133  2134     9 
 2128  2131  2151  2152     9 
 2128  2131  2151  2153     9 
 2128  2131  2151  2156     9 
 2132  2131  2151  2152     9 
 2132  2131  2151  2153     9 
 2132  2131  2151  2156     9 
 2133  2131  2151  2152     9 
 2133  2131  2151  2153     9 
 2133  2131  2151  2156     9 
 2131  2133  2134  2135     9 
 2131  2133  2134  2136     9 
 2131  2133  2134  2153     9 
 2133  2134  2136  2137     9 
 2133  2134  2136  2150     9 
 2135  2134  2136  2137     9 
 2135  2134  2136  2150     9 
 2153  2134  2136  2137     9 
 2153  2134  2136  2150     9 
 2133  2134  2153  2151     9 
 2133  2134  2153  2154     9 
 2133  2134  2153  2155     9 
 2135  2134  2153  2151     9 
 2135  2134  2153  2154     9 
 2135  2134  2153  2155     9 
 2136  2134  2153  2151     9 
 2136  2134  2153  2154     9 
 2136  2134  2153  2155     9 
 2134  2136  2137  2138     9 
 2134  2136  2137  2139     9 
 2150  2136  2137  2138     9 
 2150  2136  2137  2139     9 
 2134  2136  2150  2140     9 
 2134  2136  2150  2149     9 
 2137  2136  2150  2140     9 
 2137  2136  2150  2149     9 
 2136  2137  2139  2140     9 
 2138  2137  2139  2140     9 
 2137  2139  2140  2141     9 
 2137  2139  2140  2150     9 
 2139  2140  2141  2142     9 
 2139  2140  2141  2143     9 
 2150  2140  2141  2142     9 
 2150  2140  2141  2143     9 
 2139  2140  2150  2136     9 
 2139  2140  2150  2149     9 
 2141  2140  2150  2136     9 
 2141  2140  2150  2149     9 
 2140  2141  2143  2144     9 
 2140  2141  2143  2145     9 
 2142  2141  2143  2144     9 
 2142  2141  2143  2145     9 
 2141  2143  2145  2146     9 
 2141  2143  2145  2149     9 
 2144  2143  2145  2146     9 
 2144  2143  2145  2149     9 
 2143  2145  2146  2147     9 
 2143  2145  2146  2148     9 
 2149  2145  2146  2147     9 
 2149  2145  2146  2148     9 
 2143  2145  2149  2150     9 
 2146  2145  2149  2150     9 
 2145  2149  2150  2136     9 
 2145  2149  2150  2140     9 
 2131  2151  2153  2134     9 
 2131  2151  2153  2154     9 
 2131  2151  2153  2155     9 
 2152  2151  2153  2134     9 
 2152  2151  2153  2154     9 
 2152  2151  2153  2155     9 
 2156  2151  2153  2134     9 
 2156  2151  2153  2154     9 
 2156  2151  2153  2155     9 
 2131  2151  2156  2157     9 
 2152  2151  2156  2157     9 
 2153  2151  2156  2157     9 
 2151  2156  2157  2158     9 
 2151  2156  2157  2159     9 
 2151  2156  2157  2160     9 
 2156  2157  2160  2161     9 
 2158  2157  2160  2161     9 
 2159  2157  2160  2161     9 
 2157  2160  2161  2162     9 
 2157  2160  2161  2163     9 
 2157  2160  2161  2164     9 
 2160  2161  2164  2165     9 
 2160  2161  2164  2166     9 
 2160  2161  2164  2181     9 
 2162  2161  2164  2165     9 
 2162  2161  2164  2166     9 
 2162  2161  2164  2181     9 
 2163  2161  2164  2165     9 
 2163  2161  2164  2166     9 
 2163  2161  2164  2181     9 
 2161  2164  2166  2167     9 
 2165  2164  2166  2167     9 
 2181  2164  2166  2167     9 
 2161  2164  2181  2182     9 
 2161  2164  2181  2183     9 
 2161  2164  2181  2186     9 
 2165  2164  2181  2182     9 
 2165  2164  2181  2183     9 
 2165  2164  2181  2186     9 
 2166  2164  2181  2182     9 
 2166  2164  2181  2183     9 
 2166  2164  2181  2186     9 
 2164  2166  2167  2168     9 
 2164  2166  2167  2169     9 
 2164  2166  2167  2183     9 
 2166  2167  2169  2170     9 
 2166  2167  2169  2179     9 
 2168  2167  2169  2170     9 
 2168  2167  2169  2179     9 
 2183  2167  2169  2170     9 
 2183  2167  2169  2179     9 
 2166  2167  2183  2181     9 
 2166  2167  2183  2184     9 
 2166  2167  2183  2185     9 
 2168  2167  2183  2181     9 
 2168  2167  2183  2184     9 
 2168  2167  2183  2185     9 
 2169  2167  2183  2181     9 
 2169  2167  2183  2184     9 
 2169  2167  2183  2185     9 
 2167  2169  2170  2171     9 
 2167  2169  2170  2172     9 
 2179  2169  2170  2171     9 
 2179  2169  2170  2172     9 
 2167  2169  2179  2178     9 
 2167  2169  2179  2180     9 
 2170  2169  2179  2178     9 
 2170  2169  2179  2180     9 
 2169  2170  2172  2173     9 
 2169  2170  2172  2174     9 
 2171  2170  2172  2173     9 
 2171  2170  2172  2174     9 
 2170  2172  2174  2175     9 
 2170  2172  2174  2178     9 
 2173  2172  2174  2175     9 
 2173  2172  2174  2178     9 
 2172  2174  2175  2176     9 
 2172  2174  2175  2177     9 
 2178  2174  2175  2176     9 
 2178  2174  2175  2177     9 
 2172  2174  2178  2179     9 
 2175  2174  2178  2179     9 
 2174  2178  2179  2169     9 
 2174  2178  2179  2180     9 
 2164  2181  2183  2167     9 
 2164  2181  2183  2184     9 
 2164  2181  2183  2185     9 
 2182  2181  2183  2167     9 
 2182  2181  2183  2184     9 
 2182  2181  2183  2185     9 
 2186  2181  2183  2167     9 
 2186  2181  2183  2184     9 
 2186  2181  2183  2185     9 
 2164  2181  2186  2187     9 
 2182  2181  2186  2187     9 
 2183  2181  2186  2187     9 
 2181  2186  2187  2188     9 
 2181  2186  2187  2189     9 
 2181  2186  2187  2190     9 
 2186  2187  2190  2191     9 
 2188  2187  2190  2191     9 
 2189  2187  2190  2191     9 
 2187  2190  2191  2192     9 
 2187  2190  2191  2193     9 
 2187  2190  2191  2194     9 
 2190  2191  2194  2195     9 
 2190  2191  2194  2196     9 
 2190  2191  2194  2211     9 
 2192  2191  2194  2195     9 
 2192  2191  2194  2196     9 
 2192  2191  2194  2211     9 
 2193  2191  2194  2195     9 
 2193  2191  2194  2196     9 
 2193  2191  2194  2211     9 
 2191  2194  2196  2197     9 
 2195  2194  2196  2197     9 
 2211  2194  2196  2197     9 
 2191  2194  2211  2212     9 
 2191  2194  2211  2213     9 
 2191  2194  2211  2216     9 
 2195  2194  2211  2212     9 
 2195  2194  2211  2213     9 
 2195  2194  2211  2216     9 
 2196  2194  2211  2212     9 
 2196  2194  2211  2213     9 
 2196  2194  2211  2216     9 
 2194  2196  2197  2198     9 
 2194  2196  2197  2199     9 
 2194  2196  2197  2213     9 
 2196  2197  2199  2200     9 
 2196  2197  2199  2209     9 
 2198  2197  2199  2200     9 
 2198  2197  2199  2209     9 
 2213  2197  2199  2200     9 
 2213  2197  2199  2209     9 
 2196  2197  2213  2211     9 
 2196  2197  2213  2214     9 
 2196  2197  2213  2215     9 
 2198  2197  2213  2211     9 
 2198  2197  2213  2214     9 
 2198  2197  2213  2215     9 
 2199  2197  2213  2211     9 
 2199  2197  2213  2214     9 
 2199  2197  2213  2215     9 
 2197  2199  2200  2201     9 
 2197  2199  2200  2202     9 
 2209  2199  2200  2201     9 
 2209  2199  2200  2202     9 
 2197  2199  2209  2208     9 
 2197  2199  2209  2210     9 
 2200  2199  2209  2208     9 
 2200  2199  2209  2210     9 
 2199  2200  2202  2203     9 
 2199  2200  2202  2204     9 
 2201  2200  2202  2203     9 
 2201  2200  2202  2204     9 
 2200  2202  2204  2205     9 
 2200  2202  2204  2208     9 
 2203  2202  2204  2205     9 
 2203  2202  2204  2208     9 
 2202  2204  2205  2206     9 
 2202  2204  2205  2207     9 
 2208  2204  2205  2206     9 
 2208  2204  2205  2207     9 
 2202  2204  2208  2209     9 
 2205  2204  2208  2209     9 
 2204  2208  2209  2199     9 
 2204  2208  2209  2210     9 
 2194  2211  2213  2197     9 
 2194  2211  2213  2214     9 
 2194  2211  2213  2215     9 
 2212  2211  2213  2197     9 
 2212  2211  2213  2214     9 
 2212  2211  2213  2215     9 
 2216  2211  2213  2197     9 
 2216  2211  2213  2214     9 
 2216  2211  2213  2215     9 
 2194  2211  2216  2217     9 
 2212  2211  2216  2217     9 
 2213  2211  2216  2217     9 
 2211  2216  2217  2218     9 
 2211  2216  2217  2219     9 
 2211  2216  2217  2220     9 
 2216  2217  2220  2221     9 
 2218  2217  2220  2221     9 
 2219  2217  2220  2221     9 
 2217  2220  2221  2222     9 
 2217  2220  2221  2223     9 
 2217  2220  2221  2224     9 
 2220  2221  2224  2225     9 
 2220  2221  2224  2226     9 
 2220  2221  2224  2244     9 
 2222  2221  2224  2225     9 
 2222  2221  2224  2226     9 
 2222  2221  2224  2244     9 
 2223  2221  2224  2225     9 
 2223  2221  2224  2226     9 
 2223  2221  2224  2244     9 
 2221  2224  2226  2227     9 
 2225  2224  2226  2227     9 
 2244  2224  2226  2227     9 
 2221  2224  2244  2245     9 
 2221  2224  2244  2246     9 
 2221  2224  2244  2249     9 
 2225  2224  2244  2245     9 
 2225  2224  2244  2246     9 
 2225  2224  2244  2249     9 
 2226  2224  2244  2245     9 
 2226  2224  2244  2246     9 
 2226  2224  2244  2249     9 
 2224  2226  2227  2228     9 
 2224  2226  2227  2229     9 
 2224  2226  2227  2246     9 
 2226  2227  2229  2230     9 
 2226  2227  2229  2243     9 
 2228  2227  2229  2230     9 
 2228  2227  2229  2243     9 
 2246  2227  2229  2230     9 
 2246  2227  2229  2243     9 
 2226  2227  2246  2244     9 
 2226  2227  2246  2247     9 
 2226  2227  2246  2248     9 
 2228  2227  2246  2244     9 
 2228  2227  2246  2247     9 
 2228  2227  2246  2248     9 
 2229  2227  2246  2244     9 
 2229  2227  2246  2247     9 
 2229  2227  2246  2248     9 
 2227  2229  2230  2231     9 
 2227  2229  2230  2232     9 
 2243  2229  2230  2231     9 
 2243  2229  2230  2232     9 
 2227  2229  2243  2233     9 
 2227  2229  2243  2242     9 
 2230  2229  2243  2233     9 
 2230  2229  2243  2242     9 
 2229  2230  2232  2233     9 
 2231  2230  2232  2233     9 
 2230  2232  2233  2234     9 
 2230  2232  2233  2243     9 
 2232  2233  2234  2235     9 
 2232  2233  2234  2236     9 
 2243  2233  2234  2235     9 
 2243  2233  2234  2236     9 
 2232  2233  2243  2229     9 
 2232  2233  2243  2242     9 
 2234  2233  2243  2229     9 
 2234  2233  2243  2242     9 
 2233  2234  2236  2237     9 
 2233  2234  2236  2238     9 
 2235  2234  2236  2237     9 
 2235  2234  2236  2238     9 
 2234  2236  2238  2239     9 
 2234  2236  2238  2242     9 
 2237  2236  2238  2239     9 
 2237  2236  2238  2242     9 
 2236  2238  2239  2240     9 
 2236  2238  2239  2241     9 
 2242  2238  2239  2240     9 
 2242  2238  2239  2241     9 
 2236  2238  2242  2243     9 
 2239  2238  2242  2243     9 
 2238  2242  2243  2229     9 
 2238  2242  2243  2233     9 
 2224  2244  2246  2227     9 
 2224  2244  2246  2247     9 
 2224  2244  2246  2248     9 
 2245  2244  2246  2227     9 
 2245  2244  2246  2247     9 
 2245  2244  2246  2248     9 
 2249  2244  2246  2227     9 
 2249  2244  2246  2247     9 
 2249  2244  2246  2248     9 
 2224  2244  2249  2250     9 
 2245  2244  2249  2250     9 
 2246  2244  2249  2250     9 
 2244  2249  2250  2251     9 
 2244  2249  2250  2252     9 
 2244  2249  2250  2253     9 
 2249  2250  2253  2254     9 
 2251  2250  2253  2254     9 
 2252  2250  2253  2254     9 
 2250  2253  2254  2255     9 
 2250  2253  2254  2256     9 
 2250  2253  2254  2257     9 
 2253  2254  2257  2258     9 
 2253  2254  2257  2259     9 
 2253  2254  2257  2274     9 
 2255  2254  2257  2258     9 
 2255  2254  2257  2259     9 
 2255  2254  2257  2274     9 
 2256  2254  2257  2258     9 
 2256  2254  2257  2259     9 
 2256  2254  2257  2274     9 
 2254  2257  2259  2260     9 
 2258  2257  2259  2260     9 
 2274  2257  2259  2260     9 
 2254  2257  2274  2275     9 
 2254  2257  2274  2276     9 
 2254  2257  2274  2279     9 
 2258  2257  2274  2275     9 
 2258  2257  2274  2276     9 
 2258  2257  2274  2279     9 
 2259  2257  2274  2275     9 
 2259  2257  2274  2276     9 
 2259  2257  2274  2279     9 
 2257  2259  2260  2261     9 
 2257  2259  2260  2262     9 
 2257  2259  2260  2276     9 
 2259  2260  2262  2263     9 
 2259  2260  2262  2272     9 
 2261  2260  2262  2263     9 
 2261  2260  2262  2272     9 
 2276  2260  2262  2263     9 
 2276  2260  2262  2272     9 
 2259  2260  2276  2274     9 
 2259  2260  2276  2277     9 
 2259  2260  2276  2278     9 
 2261  2260  2276  2274     9 
 2261  2260  2276  2277     9 
 2261  2260  2276  2278     9 
 2262  2260  2276  2274     9 
 2262  2260  2276  2277     9 
 2262  2260  2276  2278     9 
 2260  2262  2263  2264     9 
 2260  2262  2263  2265     9 
 2272  2262  2263  2264     9 
 2272  2262  2263  2265     9 
 2260  2262  2272  2271     9 
 2260  2262  2272  2273     9 
 2263  2262  2272  2271     9 
 2263  2262  2272  2273     9 
 2262  2263  2265  2266     9 
 2262  2263  2265  2267     9 
 2264  2263  2265  2266     9 
 2264  2263  2265  2267     9 
 2263  2265  2267  2268     9 
 2263  2265  2267  2271     9 
 2266  2265  2267  2268     9 
 2266  2265  2267  2271     9 
 2265  2267  2268  2269     9 
 2265  2267  2268  2270     9 
 2271  2267  2268  2269     9 
 2271  2267  2268  2270     9 
 2265  2267  2271  2272     9 
 2268  2267  2271  2272     9 
 2267  2271  2272  2262     9 
 2267  2271  2272  2273     9 
 2257  2274  2276  2260     9 
 2257  2274  2276  2277     9 
 2257  2274  2276  2278     9 
 2275  2274  2276  2260     9 
 2275  2274  2276  2277     9 
 2275  2274  2276  2278     9 
 2279  2274  2276  2260     9 
 2279  2274  2276  2277     9 
 2279  2274  2276  2278     9 
 2257  2274  2279  2280     9 
 2275  2274  2279  2280     9 
 2276  2274  2279  2280     9 
 2274  2279  2280  2281     9 
 2274  2279  2280  2282     9 
 2274  2279  2280  2283     9 
 2279  2280  2283  2284     9 
 2281  2280  2283  2284     9 
 2282  2280  2283  2284     9 
 2280  2283  2284  2285     9 
 2280  2283  2284  2286     9 
 2280  2283  2284  2287     9 
 2283  2284  2287  2288     9 
 2283  2284  2287  2289     9 
 2283  2284  2287  2306     9 
 2285  2284  2287  2288     9 
 2285  2284  2287  2289     9 
 2285  2284  2287  2306     9 
 2286  2284  2287  2288     9 
 2286  2284  2287  2289     9 
 2286  2284  2287  2306     9 
 2284  2287  2289  2290     9 
 2288  2287  2289  2290     9 
 2306  2287  2289  2290     9 
 2284  2287  2306  2307     9 
 2284  2287  2306  2308     9 
 2284  2287  2306  2311     9 
 2288  2287  2306  2307     9 
 2288  2287  2306  2308     9 
 2288  2287  2306  2311     9 
 2289  2287  2306  2307     9 
 2289  2287  2306  2308     9 
 2289  2287  2306  2311     9 
 2287  2289  2290  2291     9 
 2287  2289  2290  2292     9 
 2287  2289  2290  2308     9 
 2289  2290  2292  2293     9 
 2289  2290  2292  2304     9 
 2291  2290  2292  2293     9 
 2291  2290  2292  2304     9 
 2308  2290  2292  2293     9 
 2308  2290  2292  2304     9 
 2289  2290  2308  2306     9 
 2289  2290  2308  2309     9 
 2289  2290  2308  2310     9 
 2291  2290  2308  2306     9 
 2291  2290  2308  2309     9 
 2291  2290  2308  2310     9 
 2292  2290  2308  2306     9 
 2292  2290  2308  2309     9 
 2292  2290  2308  2310     9 
 2290  2292  2293  2294     9 
 2290  2292  2293  2295     9 
 2304  2292  2293  2294     9 
 2304  2292  2293  2295     9 
 2290  2292  2304  2302     9 
 2290  2292  2304  2305     9 
 2293  2292  2304  2302     9 
 2293  2292  2304  2305     9 
 2292  2293  2295  2296     9 
 2292  2293  2295  2300     9 
 2294  2293  2295  2296     9 
 2294  2293  2295  2300     9 
 2293  2295  2296  2297     9 
 2293  2295  2296  2298     9 
 2293  2295  2296  2299     9 
 2300  2295  2296  2297     9 
 2300  2295  2296  2298     9 
 2300  2295  2296  2299     9 
 2293  2295  2300  2301     9 
 2293  2295  2300  2302     9 
 2296  2295  2300  2301     9 
 2296  2295  2300  2302     9 
 2295  2300  2302  2303     9 
 2295  2300  2302  2304     9 
 2301  2300  2302  2303     9 
 2301  2300  2302  2304     9 
 2300  2302  2304  2292     9 
 2300  2302  2304  2305     9 
 2303  2302  2304  2292     9 
 2303  2302  2304  2305     9 
 2287  2306  2308  2290     9 
 2287  2306  2308  2309     9 
 2287  2306  2308  2310     9 
 2307  2306  2308  2290     9 
 2307  2306  2308  2309     9 
 2307  2306  2308  2310     9 
 2311  2306  2308  2290     9 
 2311  2306  2308  2309     9 
 2311  2306  2308  2310     9 
 2287  2306  2311  2312     9 
 2307  2306  2311  2312     9 
 2308  2306  2311  2312     9 
 2306  2311  2312  2313     9 
 2306  2311  2312  2314     9 
 2306  2311  2312  2315     9 
 2311  2312  2315  2316     9 
 2313  2312  2315  2316     9 
 2314  2312  2315  2316     9 
 2312  2315  2316  2317     9 
 2312  2315  2316  2318     9 
 2312  2315  2316  2319     9 
 2315  2316  2319  2320     9 
 2315  2316  2319  2321     9 
 2315  2316  2319  2339     9 
 2317  2316  2319  2320     9 
 2317  2316  2319  2321     9 
 2317  2316  2319  2339     9 
 2318  2316  2319  2320     9 
 2318  2316  2319  2321     9 
 2318  2316  2319  2339     9 
 2316  2319  2321  2322     9 
 2320  2319  2321  2322     9 
 2339  2319  2321  2322     9 
 2316  2319  2339  2340     9 
 2316  2319  2339  2341     9 
 2316  2319  2339  2344     9 
 2320  2319  2339  2340     9 
 2320  2319  2339  2341     9 
 2320  2319  2339  2344     9 
 2321  2319  2339  2340     9 
 2321  2319  2339  2341     9 
 2321  2319  2339  2344     9 
 2319  2321  2322  2323     9 
 2319  2321  2322  2324     9 
 2319  2321  2322  2341     9 
 2321  2322  2324  2325     9 
 2321  2322  2324  2338     9 
 2323  2322  2324  2325     9 
 2323  2322  2324  2338     9 
 2341  2322  2324  2325     9 
 2341  2322  2324  2338     9 
 2321  2322  2341  2339     9 
 2321  2322  2341  2342     9 
 2321  2322  2341  2343     9 
 2323  2322  2341  2339     9 
 2323  2322  2341  2342     9 
 2323  2322  2341  2343     9 
 2324  2322  2341  2339     9 
 2324  2322  2341  2342     9 
 2324  2322  2341  2343     9 
 2322  2324  2325  2326     9 
 2322  2324  2325  2327     9 
 2338  2324  2325  2326     9 
 2338  2324  2325  2327     9 
 2322  2324  2338  2328     9 
 2322  2324  2338  2337     9 
 2325  2324  2338  2328     9 
 2325  2324  2338  2337     9 
 2324  2325  2327  2328     9 
 2326  2325  2327  2328     9 
 2325  2327  2328  2329     9 
 2325  2327  2328  2338     9 
 2327  2328  2329  2330     9 
 2327  2328  2329  2331     9 
 2338  2328  2329  2330     9 
 2338  2328  2329  2331     9 
 2327  2328  2338  2324     9 
 2327  2328  2338  2337     9 
 2329  2328  2338  2324     9 
 2329  2328  2338  2337     9 
 2328  2329  2331  2332     9 
 2328  2329  2331  2333     9 
 2330  2329  2331  2332     9 
 2330  2329  2331  2333     9 
 2329  2331  2333  2334     9 
 2329  2331  2333  2337     9 
 2332  2331  2333  2334     9 
 2332  2331  2333  2337     9 
 2331  2333  2334  2335     9 
 2331  2333  2334  2336     9 
 2337  2333  2334  2335     9 
 2337  2333  2334  2336     9 
 2331  2333  2337  2338     9 
 2334  2333  2337  2338     9 
 2333  2337  2338  2324     9 
 2333  2337  2338  2328     9 
 2319  2339  2341  2322     9 
 2319  2339  2341  2342     9 
 2319  2339  2341  2343     9 
 2340  2339  2341  2322     9 
 2340  2339  2341  2342     9 
 2340  2339  2341  2343     9 
 2344  2339  2341  2322     9 
 2344  2339  2341  2342     9 
 2344  2339  2341  2343     9 
 2319  2339  2344  2345     9 
 2340  2339  2344  2345     9 
 2341  2339  2344  2345     9 
 2339  2344  2345  2346     9 
 2339  2344  2345  2347     9 
 2339  2344  2345  2348     9 
 2344  2345  2348  2349     9 
 2346  2345  2348  2349     9 
 2347  2345  2348  2349     9 
 2345  2348  2349  2350     9 
 2345  2348  2349  2351     9 
 2345  2348  2349  2352     9 
 2348  2349  2352  2353     9 
 2348  2349  2352  2354     9 
 2348  2349  2352  2371     9 
 2350  2349  2352  2353     9 
 2350  2349  2352  2354     9 
 2350  2349  2352  2371     9 
 2351  2349  2352  2353     9 
 2351  2349  2352  2354     9 
 2351  2349  2352  2371     9 
 2349  2352  2354  2355     9 
 2353  2352  2354  2355     9 
 2371  2352  2354  2355     9 
 2349  2352  2371  2372     9 
 2349  2352  2371  2373     9 
 2349  2352  2371  2376     9 
 2353  2352  2371  2372     9 
 2353  2352  2371  2373     9 
 2353  2352  2371  2376     9 
 2354  2352  2371  2372     9 
 2354  2352  2371  2373     9 
 2354  2352  2371  2376     9 
 2352  2354  2355  2356     9 
 2352  2354  2355  2357     9 
 2352  2354  2355  2373     9 
 2354  2355  2357  2358     9 
 2354  2355  2357  2370     9 
 2356  2355  2357  2358     9 
 2356  2355  2357  2370     9 
 2373  2355  2357  2358     9 
 2373  2355  2357  2370     9 
 2354  2355  2373  2371     9 
 2354  2355  2373  2374     9 
 2354  2355  2373  2375     9 
 2356  2355  2373  2371     9 
 2356  2355  2373  2374     9 
 2356  2355  2373  2375     9 
 2357  2355  2373  2371     9 
 2357  2355  2373  2374     9 
 2357  2355  2373  2375     9 
 2355  2357  2358  2359     9 
 2355  2357  2358  2360     9 
 2370  2357  2358  2359     9 
 2370  2357  2358  2360     9 
 2355  2357  2370  2361     9 
 2355  2357  2370  2369     9 
 2358  2357  2370  2361     9 
 2358  2357  2370  2369     9 
 2357  2358  2360  2361     9 
 2359  2358  2360  2361     9 
 2358  2360  2361  2362     9 
 2358  2360  2361  2370     9 
 2360  2361  2362  2363     9 
 2360  2361  2362  2366     9 
 2370  2361  2362  2363     9 
 2370  2361  2362  2366     9 
 2360  2361  2370  2357     9 
 2360  2361  2370  2369     9 
 2362  2361  2370  2357     9 
 2362  2361  2370  2369     9 
 2361  2362  2363  2364     9 
 2361  2362  2363  2365     9 
 2366  2362  2363  2364     9 
 2366  2362  2363  2365     9 
 2361  2362  2366  2367     9 
 2363  2362  2366  2367     9 
 2362  2366  2367  2368     9 
 2362  2366  2367  2369     9 
 2366  2367  2369  2370     9 
 2368  2367  2369  2370     9 
 2367  2369  2370  2357     9 
 2367  2369  2370  2361     9 
 2352  2371  2373  2355     9 
 2352  2371  2373  2374     9 
 2352  2371  2373  2375     9 
 2372  2371  2373  2355     9 
 2372  2371  2373  2374     9 
 2372  2371  2373  2375     9 
 2376  2371  2373  2355     9 
 2376  2371  2373  2374     9 
 2376  2371  2373  2375     9 
 2352  2371  2376  2377     9 
 2372  2371  2376  2377     9 
 2373  2371  2376  2377     9 
 2371  2376  2377  2378     9 
 2371  2376  2377  2379     9 
 2371  2376  2377  2380     9 
 2376  2377  2380  2381     9 
 2378  2377  2380  2381     9 
 2379  2377  2380  2381     9 
 2377  2380  2381  2382     9 
 2377  2380  2381  2383     9 
 2377  2380  2381  2384     9 
 2380  2381  2384  2385     9 
 2380  2381  2384  2386     9 
 2380  2381  2384  2404     9 
 2382  2381  2384  2385     9 
 2382  2381  2384  2386     9 
 2382  2381  2384  2404     9 
 2383  2381  2384  2385     9 
 2383  2381  2384  2386     9 
 2383  2381  2384  2404     9 
 2381  2384  2386  2387     9 
 2385  2384  2386  2387     9 
 2404  2384  2386  2387     9 
 2381  2384  2404  2405     9 
 2381  2384  2404  2406     9 
 2381  2384  2404  2409     9 
 2385  2384  2404  2405     9 
 2385  2384  2404  2406     9 
 2385  2384  2404  2409     9 
 2386  2384  2404  2405     9 
 2386  2384  2404  2406     9 
 2386  2384  2404  2409     9 
 2384  2386  2387  2388     9 
 2384  2386  2387  2389     9 
 2384  2386  2387  2406     9 
 2386  2387  2389  2390     9 
 2386  2387  2389  2403     9 
 2388  2387  2389  2390     9 
 2388  2387  2389  2403     9 
 2406  2387  2389  2390     9 
 2406  2387  2389  2403     9 
 2386  2387  2406  2404     9 
 2386  2387  2406  2407     9 
 2386  2387  2406  2408     9 
 2388  2387  2406  2404     9 
 2388  2387  2406  2407     9 
 2388  2387  2406  2408     9 
 2389  2387  2406  2404     9 
 2389  2387  2406  2407     9 
 2389  2387  2406  2408     9 
 2387  2389  2390  2391     9 
 2387  2389  2390  2392     9 
 2403  2389  2390  2391     9 
 2403  2389  2390  2392     9 
 2387  2389  2403  2393     9 
 2387  2389  2403  2402     9 
 2390  2389  2403  2393     9 
 2390  2389  2403  2402     9 
 2389  2390  2392  2393     9 
 2391  2390  2392  2393     9 
 2390  2392  2393  2394     9 
 2390  2392  2393  2403     9 
 2392  2393  2394  2395     9 
 2392  2393  2394  2396     9 
 2403  2393  2394  2395     9 
 2403  2393  2394  2396     9 
 2392  2393  2403  2389     9 
 2392  2393  2403  2402     9 
 2394  2393  2403  2389     9 
 2394  2393  2403  2402     9 
 2393  2394  2396  2397     9 
 2393  2394  2396  2398     9 
 2395  2394  2396  2397     9 
 2395  2394  2396  2398     9 
 2394  2396  2398  2399     9 
 2394  2396  2398  2402     9 
 2397  2396  2398  2399     9 
 2397  2396  2398  2402     9 
 2396  2398  2399  2400     9 
 2396  2398  2399  2401     9 
 2402  2398  2399  2400     9 
 2402  2398  2399  2401     9 
 2396  2398  2402  2403     9 
 2399  2398  2402  2403     9 
 2398  2402  2403  2389     9 
 2398  2402  2403  2393     9 
 2384  2404  2406  2387     9 
 2384  2404  2406  2407     9 
 2384  2404  2406  2408     9 
 2405  2404  2406  2387     9 
 2405  2404  2406  2407     9 
 2405  2404  2406  2408     9 
 2409  2404  2406  2387     9 
 2409  2404  2406  2407     9 
 2409  2404  2406  2408     9 
 2384  2404  2409  2410     9 
 2405  2404  2409  2410     9 
 2406  2404  2409  2410     9 
 2404  2409  2410  2411     9 
 2404  2409  2410  2412     9 
 2404  2409  2410  2413     9 
 2409  2410  2413  2414     9 
 2411  2410  2413  2414     9 
 2412  2410  2413  2414     9 
 2410  2413  2414  2415     9 
 2410  2413  2414  2416     9 
 2410  2413  2414  2417     9 
 2413  2414  2417  2418     9 
 2413  2414  2417  2419     9 
 2413  2414  2417  2434     9 
 2415  2414  2417  2418     9 
 2415  2414  2417  2419     9 
 2415  2414  2417  2434     9 
 2416  2414  2417  2418     9 
 2416  2414  2417  2419     9 
 2416  2414  2417  2434     9 
 2414  2417  2419  2420     9 
 2418  2417  2419  2420     9 
 2434  2417  2419  2420     9 
 2414  2417  2434  2435     9 
 2414  2417  2434  2436     9 
 2414  2417  2434  2439     9 
 2418  2417  2434  2435     9 
 2418  2417  2434  2436     9 
 2418  2417  2434  2439     9 
 2419  2417  2434  2435     9 
 2419  2417  2434  2436     9 
 2419  2417  2434  2439     9 
 2417  2419  2420  2421     9 
 2417  2419  2420  2422     9 
 2417  2419  2420  2436     9 
 2419  2420  2422  2423     9 
 2419  2420  2422  2432     9 
 2421  2420  2422  2423     9 
 2421  2420  2422  2432     9 
 2436  2420  2422  2423     9 
 2436  2420  2422  2432     9 
 2419  2420  2436  2434     9 
 2419  2420  2436  2437     9 
 2419  2420  2436  2438     9 
 2421  2420  2436  2434     9 
 2421  2420  2436  2437     9 
 2421  2420  2436  2438     9 
 2422  2420  2436  2434     9 
 2422  2420  2436  2437     9 
 2422  2420  2436  2438     9 
 2420  2422  2423  2424     9 
 2420  2422  2423  2425     9 
 2432  2422  2423  2424     9 
 2432  2422  2423  2425     9 
 2420  2422  2432  2431     9 
 2420  2422  2432  2433     9 
 2423  2422  2432  2431     9 
 2423  2422  2432  2433     9 
 2422  2423  2425  2426     9 
 2422  2423  2425  2427     9 
 2424  2423  2425  2426     9 
 2424  2423  2425  2427     9 
 2423  2425  2427  2428     9 
 2423  2425  2427  2431     9 
 2426  2425  2427  2428     9 
 2426  2425  2427  2431     9 
 2425  2427  2428  2429     9 
 2425  2427  2428  2430     9 
 2431  2427  2428  2429     9 
 2431  2427  2428  2430     9 
 2425  2427  2431  2432     9 
 2428  2427  2431  2432     9 
 2427  2431  2432  2422     9 
 2427  2431  2432  2433     9 
 2417  2434  2436  2420     9 
 2417  2434  2436  2437     9 
 2417  2434  2436  2438     9 
 2435  2434  2436  2420     9 
 2435  2434  2436  2437     9 
 2435  2434  2436  2438     9 
 2439  2434  2436  2420     9 
 2439  2434  2436  2437     9 
 2439  2434  2436  2438     9 
 2417  2434  2439  2440     9 
 2435  2434  2439  2440     9 
 2436  2434  2439  2440     9 
 2434  2439  2440  2441     9 
 2434  2439  2440  2442     9 
 2434  2439  2440  2443     9 
 2439  2440  2443  2444     9 
 2441  2440  2443  2444     9 
 2442  2440  2443  2444     9 
 2440  2443  2444  2445     9 
 2440  2443  2444  2446     9 
 2440  2443  2444  2447     9 
 2443  2444  2447  2448     9 
 2443  2444  2447  2449     9 
 2443  2444  2447  2464     9 
 2445  2444  2447  2448     9 
 2445  2444  2447  2449     9 
 2445  2444  2447  2464     9 
 2446  2444  2447  2448     9 
 2446  2444  2447  2449     9 
 2446  2444  2447  2464     9 
 2444  2447  2449  2450     9 
 2448  2447  2449  2450     9 
 2464  2447  2449  2450     9 
 2444  2447  2464  2465     9 
 2444  2447  2464  2466     9 
 2444  2447  2464  2469     9 
 2448  2447  2464  2465     9 
 2448  2447  2464  2466     9 
 2448  2447  2464  2469     9 
 2449  2447  2464  2465     9 
 2449  2447  2464  2466     9 
 2449  2447  2464  2469     9 
 2447  2449  2450  2451     9 
 2447  2449  2450  2452     9 
 2447  2449  2450  2466     9 
 2449  2450  2452  2453     9 
 2449  2450  2452  2462     9 
 2451  2450  2452  2453     9 
 2451  2450  2452  2462     9 
 2466  2450  2452  2453     9 
 2466  2450  2452  2462     9 
 2449  2450  2466  2464     9 
 2449  2450  2466  2467     9 
 2449  2450  2466  2468     9 
 2451  2450  2466  2464     9 
 2451  2450  2466  2467     9 
 2451  2450  2466  2468     9 
 2452  2450  2466  2464     9 
 2452  2450  2466  2467     9 
 2452  2450  2466  2468     9 
 2450  2452  2453  2454     9 
 2450  2452  2453  2455     9 
 2462  2452  2453  2454     9 
 2462  2452  2453  2455     9 
 2450  2452  2462  2461     9 
 2450  2452  2462  2463     9 
 2453  2452  2462  2461     9 
 2453  2452  2462  2463     9 
 2452  2453  2455  2456     9 
 2452  2453  2455  2457     9 
 2454  2453  2455  2456     9 
 2454  2453  2455  2457     9 
 2453  2455  2457  2458     9 
 2453  2455  2457  2461     9 
 2456  2455  2457  2458     9 
 2456  2455  2457  2461     9 
 2455  2457  2458  2459     9 
 2455  2457  2458  2460     9 
 2461  2457  2458  2459     9 
 2461  2457  2458  2460     9 
 2455  2457  2461  2462     9 
 2458  2457  2461  2462     9 
 2457  2461  2462  2452     9 
 2457  2461  2462  2463     9 
 2447  2464  2466  2450     9 
 2447  2464  2466  2467     9 
 2447  2464  2466  2468     9 
 2465  2464  2466  2450     9 
 2465  2464  2466  2467     9 
 2465  2464  2466  2468     9 
 2469  2464  2466  2450     9 
 2469  2464  2466  2467     9 
 2469  2464  2466  2468     9 
 2447  2464  2469  2470     9 
 2465  2464  2469  2470     9 
 2466  2464  2469  2470     9 
 2464  2469  2470  2471     9 
 2464  2469  2470  2472     9 
 2464  2469  2470  2473     9 
 2469  2470  2473  2474     9 
 2471  2470  2473  2474     9 
 2472  2470  2473  2474     9 
 2470  2473  2474  2475     9 
 2470  2473  2474  2476     9 
 2470  2473  2474  2477     9 
 2473  2474  2477  2478     9 
 2473  2474  2477  2479     9 
 2473  2474  2477  2496     9 
 2475  2474  2477  2478     9 
 2475  2474  2477  2479     9 
 2475  2474  2477  2496     9 
 2476  2474  2477  2478     9 
 2476  2474  2477  2479     9 
 2476  2474  2477  2496     9 
 2474  2477  2479  2480     9 
 2478  2477  2479  2480     9 
 2496  2477  2479  2480     9 
 2474  2477  2496  2497     9 
 2474  2477  2496  2498     9 
 2474  2477  2496  2501     9 
 2478  2477  2496  2497     9 
 2478  2477  2496  2498     9 
 2478  2477  2496  2501     9 
 2479  2477  2496  2497     9 
 2479  2477  2496  2498     9 
 2479  2477  2496  2501     9 
 2477  2479  2480  2481     9 
 2477  2479  2480  2482     9 
 2477  2479  2480  2498     9 
 2479  2480  2482  2483     9 
 2479  2480  2482  2494     9 
 2481  2480  2482  2483     9 
 2481  2480  2482  2494     9 
 2498  2480  2482  2483     9 
 2498  2480  2482  2494     9 
 2479  2480  2498  2496     9 
 2479  2480  2498  2499     9 
 2479  2480  2498  2500     9 
 2481  2480  2498  2496     9 
 2481  2480  2498  2499     9 
 2481  2480  2498  2500     9 
 2482  2480  2498  2496     9 
 2482  2480  2498  2499     9 
 2482  2480  2498  2500     9 
 2480  2482  2483  2484     9 
 2480  2482  2483  2485     9 
 2494  2482  2483  2484     9 
 2494  2482  2483  2485     9 
 2480  2482  2494  2492     9 
 2480  2482  2494  2495     9 
 2483  2482  2494  2492     9 
 2483  2482  2494  2495     9 
 2482  2483  2485  2486     9 
 2482  2483  2485  2490     9 
 2484  2483  2485  2486     9 
 2484  2483  2485  2490     9 
 2483  2485  2486  2487     9 
 2483  2485  2486  2488     9 
 2483  2485  2486  2489     9 
 2490  2485  2486  2487     9 
 2490  2485  2486  2488     9 
 2490  2485  2486  2489     9 
 2483  2485  2490  2491     9 
 2483  2485  2490  2492     9 
 2486  2485  2490  2491     9 
 2486  2485  2490  2492     9 
 2485  2490  2492  2493     9 
 2485  2490  2492  2494     9 
 2491  2490  2492  2493     9 
 2491  2490  2492  2494     9 
 2490  2492  2494  2482     9 
 2490  2492  2494  2495     9 
 2493  2492  2494  2482     9 
 2493  2492  2494  2495     9 
 2477  2496  2498  2480     9 
 2477  2496  2498  2499     9 
 2477  2496  2498  2500     9 
 2497  2496  2498  2480     9 
 2497  2496  2498  2499     9 
 2497  2496  2498  2500     9 
 2501  2496  2498  2480     9 
 2501  2496  2498  2499     9 
 2501  2496  2498  2500     9 
 2477  2496  2501  2502     9 
 2497  2496  2501  2502     9 
 2498  2496  2501  2502     9 
 2496  2501  2502  2503     9 
 2496  2501  2502  2504     9 
 2496  2501  2502  2505     9 
 2501  2502  2505  2506     9 
 2503  2502  2505  2506     9 
 2504  2502  2505  2506     9 
 2502  2505  2506  2507     9 
 2502  2505  2506  2508     9 
 2502  2505  2506  2509     9 
 2505  2506  2509  2510     9 
 2505  2506  2509  2511     9 
 2505  2506  2509  2526     9 
 2507  2506  2509  2510     9 
 2507  2506  2509  2511     9 
 2507  2506  2509  2526     9 
 2508  2506  2509  2510     9 
 2508  2506  2509  2511     9 
 2508  2506  2509  2526     9 
 2506  2509  2511  2512     9 
 2510  2509  2511  2512     9 
 2526  2509  2511  2512     9 
 2506  2509  2526  2527     9 
 2506  2509  2526  2528     9 
 2506  2509  2526  2531     9 
 2510  2509  2526  2527     9 
 2510  2509  2526  2528     9 
 2510  2509  2526  2531     9 
 2511  2509  2526  2527     9 
 2511  2509  2526  2528     9 
 2511  2509  2526  2531     9 
 2509  2511  2512  2513     9 
 2509  2511  2512  2514     9 
 2509  2511  2512  2528     9 
 2511  2512  2514  2515     9 
 2511  2512  2514  2524     9 
 2513  2512  2514  2515     9 
 2513  2512  2514  2524     9 
 2528  2512  2514  2515     9 
 2528  2512  2514  2524     9 
 2511  2512  2528  2526     9 
 2511  2512  2528  2529     9 
 2511  2512  2528  2530     9 
 2513  2512  2528  2526     9 
 2513  2512  2528  2529     9 
 2513  2512  2528  2530     9 
 2514  2512  2528  2526     9 
 2514  2512  2528  2529     9 
 2514  2512  2528  2530     9 
 2512  2514  2515  2516     9 
 2512  2514  2515  2517     9 
 2524  2514  2515  2516     9 
 2524  2514  2515  2517     9 
 2512  2514  2524  2523     9 
 2512  2514  2524  2525     9 
 2515  2514  2524  2523     9 
 2515  2514  2524  2525     9 
 2514  2515  2517  2518     9 
 2514  2515  2517  2519     9 
 2516  2515  2517  2518     9 
 2516  2515  2517  2519     9 
 2515  2517  2519  2520     9 
 2515  2517  2519  2523     9 
 2518  2517  2519  2520     9 
 2518  2517  2519  2523     9 
 2517  2519  2520  2521     9 
 2517  2519  2520  2522     9 
 2523  2519  2520  2521     9 
 2523  2519  2520  2522     9 
 2517  2519  2523  2524     9 
 2520  2519  2523  2524     9 
 2519  2523  2524  2514     9 
 2519  2523  2524  2525     9 
 2509  2526  2528  2512     9 
 2509  2526  2528  2529     9 
 2509  2526  2528  2530     9 
 2527  2526  2528  2512     9 
 2527  2526  2528  2529     9 
 2527  2526  2528  2530     9 
 2531  2526  2528  2512     9 
 2531  2526  2528  2529     9 
 2531  2526  2528  2530     9 
 2509  2526  2531  2532     9 
 2527  2526  2531  2532     9 
 2528  2526  2531  2532     9 
 2526  2531  2532  2533     9 
 2526  2531  2532  2534     9 
 2526  2531  2532  2535     9 
 2531  2532  2535  2536     9 
 2533  2532  2535  2536     9 
 2534  2532  2535  2536     9 
 2532  2535  2536  2537     9 
 2532  2535  2536  2538     9 
 2532  2535  2536  2539     9 
 2535  2536  2539  2540     9 
 2535  2536  2539  2541     9 
 2535  2536  2539  2558     9 
 2537  2536  2539  2540     9 
 2537  2536  2539  2541     9 
 2537  2536  2539  2558     9 
 2538  2536  2539  2540     9 
 2538  2536  2539  2541     9 
 2538  2536  2539  2558     9 
 2536  2539  2541  2542     9 
 2540  2539  2541  2542     9 
 2558  2539  2541  2542     9 
 2536  2539  2558  2559     9 
 2536  2539  2558  2560     9 
 2536  2539  2558  2563     9 
 2540  2539  2558  2559     9 
 2540  2539  2558  2560     9 
 2540  2539  2558  2563     9 
 2541  2539  2558  2559     9 
 2541  2539  2558  2560     9 
 2541  2539  2558  2563     9 
 2539  2541  2542  2543     9 
 2539  2541  2542  2544     9 
 2539  2541  2542  2560     9 
 2541  2542  2544  2545     9 
 2541  2542  2544  2556     9 
 2543  2542  2544  2545     9 
 2543  2542  2544  2556     9 
 2560  2542  2544  2545     9 
 2560  2542  2544  2556     9 
 2541  2542  2560  2558     9 
 2541  2542  2560  2561     9 
 2541  2542  2560  2562     9 
 2543  2542  2560  2558     9 
 2543  2542  2560  2561     9 
 2543  2542  2560  2562     9 
 2544  2542  2560  2558     9 
 2544  2542  2560  2561     9 
 2544  2542  2560  2562     9 
 2542  2544  2545  2546     9 
 2542  2544  2545  2547     9 
 2556  2544  2545  2546     9 
 2556  2544  2545  2547     9 
 2542  2544  2556  2554     9 
 2542  2544  2556  2557     9 
 2545  2544  2556  2554     9 
 2545  2544  2556  2557     9 
 2544  2545  2547  2548     9 
 2544  2545  2547  2552     9 
 2546  2545  2547  2548     9 
 2546  2545  2547  2552     9 
 2545  2547  2548  2549     9 
 2545  2547  2548  2550     9 
 2545  2547  2548  2551     9 
 2552  2547  2548  2549     9 
 2552  2547  2548  2550     9 
 2552  2547  2548  2551     9 
 2545  2547  2552  2553     9 
 2545  2547  2552  2554     9 
 2548  2547  2552  2553     9 
 2548  2547  2552  2554     9 
 2547  2552  2554  2555     9 
 2547  2552  2554  2556     9 
 2553  2552  2554  2555     9 
 2553  2552  2554  2556     9 
 2552  2554  2556  2544     9 
 2552  2554  2556  2557     9 
 2555  2554  2556  2544     9 
 2555  2554  2556  2557     9 
 2539  2558  2560  2542     9 
 2539  2558  2560  2561     9 
 2539  2558  2560  2562     9 
 2559  2558  2560  2542     9 
 2559  2558  2560  2561     9 
 2559  2558  2560  2562     9 
 2563  2558  2560  2542     9 
 2563  2558  2560  2561     9 
 2563  2558  2560  2562     9 
 2539  2558  2563  2564     9 
 2559  2558  2563  2564     9 
 2560  2558  2563  2564     9 
 2558  2563  2564  2565     9 
 2558  2563  2564  2566     9 
 2558  2563  2564  2567     9 
 2563  2564  2567  2568     9 
 2565  2564  2567  2568     9 
 2566  2564  2567  2568     9 
 2564  2567  2568  2569     9 
 2564  2567  2568  2570     9 
 2564  2567  2568  2571     9 
 2567  2568  2571  2572     9 
 2567  2568  2571  2573     9 
 2567  2568  2571  2591     9 
 2569  2568  2571  2572     9 
 2569  2568  2571  2573     9 
 2569  2568  2571  2591     9 
 2570  2568  2571  2572     9 
 2570  2568  2571  2573     9 
 2570  2568  2571  2591     9 
 2568  2571  2573  2574     9 
 2572  2571  2573  2574     9 
 2591  2571  2573  2574     9 
 2568  2571  2591  2592     9 
 2568  2571  2591  2593     9 
 2568  2571  2591  2596     9 
 2572  2571  2591  2592     9 
 2572  2571  2591  2593     9 
 2572  2571  2591  2596     9 
 2573  2571  2591  2592     9 
 2573  2571  2591  2593     9 
 2573  2571  2591  2596     9 
 2571  2573  2574  2575     9 
 2571  2573  2574  2576     9 
 2571  2573  2574  2593     9 
 2573  2574  2576  2577     9 
 2573  2574  2576  2590     9 
 2575  2574  2576  2577     9 
 2575  2574  2576  2590     9 
 2593  2574  2576  2577     9 
 2593  2574  2576  2590     9 
 2573  2574  2593  2591     9 
 2573  2574  2593  2594     9 
 2573  2574  2593  2595     9 
 2575  2574  2593  2591     9 
 2575  2574  2593  2594     9 
 2575  2574  2593  2595     9 
 2576  2574  2593  2591     9 
 2576  2574  2593  2594     9 
 2576  2574  2593  2595     9 
 2574  2576  2577  2578     9 
 2574  2576  2577  2579     9 
 2590  2576  2577  2578     9 
 2590  2576  2577  2579     9 
 2574  2576  2590  2580     9 
 2574  2576  2590  2589     9 
 2577  2576  2590  2580     9 
 2577  2576  2590  2589     9 
 2576  2577  2579  2580     9 
 2578  2577  2579  2580     9 
 2577  2579  2580  2581     9 
 2577  2579  2580  2590     9 
 2579  2580  2581  2582     9 
 2579  2580  2581  2583     9 
 2590  2580  2581  2582     9 
 2590  2580  2581  2583     9 
 2579  2580  2590  2576     9 
 2579  2580  2590  2589     9 
 2581  2580  2590  2576     9 
 2581  2580  2590  2589     9 
 2580  2581  2583  2584     9 
 2580  2581  2583  2585     9 
 2582  2581  2583  2584     9 
 2582  2581  2583  2585     9 
 2581  2583  2585  2586     9 
 2581  2583  2585  2589     9 
 2584  2583  2585  2586     9 
 2584  2583  2585  2589     9 
 2583  2585  2586  2587     9 
 2583  2585  2586  2588     9 
 2589  2585  2586  2587     9 
 2589  2585  2586  2588     9 
 2583  2585  2589  2590     9 
 2586  2585  2589  2590     9 
 2585  2589  2590  2576     9 
 2585  2589  2590  2580     9 
 2571  2591  2593  2574     9 
 2571  2591  2593  2594     9 
 2571  2591  2593  2595     9 
 2592  2591  2593  2574     9 
 2592  2591  2593  2594     9 
 2592  2591  2593  2595     9 
 2596  2591  2593  2574     9 
 2596  2591  2593  2594     9 
 2596  2591  2593  2595     9 
 2571  2591  2596  2597     9 
 2592  2591  2596  2597     9 
 2593  2591  2596  2597     9 
 2591  2596  2597  2598     9 
 2591  2596  2597  2599     9 
 2591  2596  2597  2600     9 
 2596  2597  2600  2601     9 
 2598  2597  2600  2601     9 
 2599  2597  2600  2601     9 
 2597  2600  2601  2602     9 
 2597  2600  2601  2603     9 
 2597  2600  2601  2604     9 
 2600  2601  2604  2605     9 
 2600  2601  2604  2606     9 
 2600  2601  2604  2624     9 
 2602  2601  2604  2605     9 
 2602  2601  2604  2606     9 
 2602  2601  2604  2624     9 
 2603  2601  2604  2605     9 
 2603  2601  2604  2606     9 
 2603  2601  2604  2624     9 
 2601  2604  2606  2607     9 
 2605  2604  2606  2607     9 
 2624  2604  2606  2607     9 
 2601  2604  2624  2625     9 
 2601  2604  2624  2626     9 
 2601  2604  2624  2629     9 
 2605  2604  2624  2625     9 
 2605  2604  2624  2626     9 
 2605  2604  2624  2629     9 
 2606  2604  2624  2625     9 
 2606  2604  2624  2626     9 
 2606  2604  2624  2629     9 
 2604  2606  2607  2608     9 
 2604  2606  2607  2609     9 
 2604  2606  2607  2626     9 
 2606  2607  2609  2610     9 
 2606  2607  2609  2623     9 
 2608  2607  2609  2610     9 
 2608  2607  2609  2623     9 
 2626  2607  2609  2610     9 
 2626  2607  2609  2623     9 
 2606  2607  2626  2624     9 
 2606  2607  2626  2627     9 
 2606  2607  2626  2628     9 
 2608  2607  2626  2624     9 
 2608  2607  2626  2627     9 
 2608  2607  2626  2628     9 
 2609  2607  2626  2624     9 
 2609  2607  2626  2627     9 
 2609  2607  2626  2628     9 
 2607  2609  2610  2611     9 
 2607  2609  2610  2612     9 
 2623  2609  2610  2611     9 
 2623  2609  2610  2612     9 
 2607  2609  2623  2613     9 
 2607  2609  2623  2622     9 
 2610  2609  2623  2613     9 
 2610  2609  2623  2622     9 
 2609  2610  2612  2613     9 
 2611  2610  2612  2613     9 
 2610  2612  2613  2614     9 
 2610  2612  2613  2623     9 
 2612  2613  2614  2615     9 
 2612  2613  2614  2616     9 
 2623  2613  2614  2615     9 
 2623  2613  2614  2616     9 
 2612  2613  2623  2609     9 
 2612  2613  2623  2622     9 
 2614  2613  2623  2609     9 
 2614  2613  2623  2622     9 
 2613  2614  2616  2617     9 
 2613  2614  2616  2618     9 
 2615  2614  2616  2617     9 
 2615  2614  2616  2618     9 
 2614  2616  2618  2619     9 
 2614  2616  2618  2622     9 
 2617  2616  2618  2619     9 
 2617  2616  2618  2622     9 
 2616  2618  2619  2620     9 
 2616  2618  2619  2621     9 
 2622  2618  2619  2620     9 
 2622  2618  2619  2621     9 
 2616  2618  2622  2623     9 
 2619  2618  2622  2623     9 
 2618  2622  2623  2609     9 
 2618  2622  2623  2613     9 
 2604  2624  2626  2607     9 
 2604  2624  2626  2627     9 
 2604  2624  2626  2628     9 
 2625  2624  2626  2607     9 
 2625  2624  2626  2627     9 
 2625  2624  2626  2628     9 
 2629  2624  2626  2607     9 
 2629  2624  2626  2627     9 
 2629  2624  2626  2628     9 
 2604  2624  2629  2630     9 
 2625  2624  2629  2630     9 
 2626  2624  2629  2630     9 
 2624  2629  2630  2631     9 
 2624  2629  2630  2632     9 
 2624  2629  2630  2633     9 
 2629  2630  2633  2634     9 
 2631  2630  2633  2634     9 
 2632  2630  2633  2634     9 
 2630  2633  2634  2635     9 
 2630  2633  2634  2636     9 
 2630  2633  2634  2637     9 
 2633  2634  2637  2638     9 
 2633  2634  2637  2639     9 
 2633  2634  2637  2654     9 
 2635  2634  2637  2638     9 
 2635  2634  2637  2639     9 
 2635  2634  2637  2654     9 
 2636  2634  2637  2638     9 
 2636  2634  2637  2639     9 
 2636  2634  2637  2654     9 
 2634  2637  2639  2640     9 
 2638  2637  2639  2640     9 
 2654  2637  2639  2640     9 
 2634  2637  2654  2655     9 
 2634  2637  2654  2656     9 
 2634  2637  2654  2659     9 
 2638  2637  2654  2655     9 
 2638  2637  2654  2656     9 
 2638  2637  2654  2659     9 
 2639  2637  2654  2655     9 
 2639  2637  2654  2656     9 
 2639  2637  2654  2659     9 
 2637  2639  2640  2641     9 
 2637  2639  2640  2642     9 
 2637  2639  2640  2656     9 
 2639  2640  2642  2643     9 
 2639  2640  2642  2652     9 
 2641  2640  2642  2643     9 
 2641  2640  2642  2652     9 
 2656  2640  2642  2643     9 
 2656  2640  2642  2652     9 
 2639  2640  2656  2654     9 
 2639  2640  2656  2657     9 
 2639  2640  2656  2658     9 
 2641  2640  2656  2654     9 
 2641  2640  2656  2657     9 
 2641  2640  2656  2658     9 
 2642  2640  2656  2654     9 
 2642  2640  2656  2657     9 
 2642  2640  2656  2658     9 
 2640  2642  2643  2644     9 
 2640  2642  2643  2645     9 
 2652  2642  2643  2644     9 
 2652  2642  2643  2645     9 
 2640  2642  2652  2651     9 
 2640  2642  2652  2653     9 
 2643  2642  2652  2651     9 
 2643  2642  2652  2653     9 
 2642  2643  2645  2646     9 
 2642  2643  2645  2647     9 
 2644  2643  2645  2646     9 
 2644  2643  2645  2647     9 
 2643  2645  2647  2648     9 
 2643  2645  2647  2651     9 
 2646  2645  2647  2648     9 
 2646  2645  2647  2651     9 
 2645  2647  2648  2649     9 
 2645  2647  2648  2650     9 
 2651  2647  2648  2649     9 
 2651  2647  2648  2650     9 
 2645  2647  2651  2652     9 
 2648  2647  2651  2652     9 
 2647  2651  2652  2642     9 
 2647  2651  2652  2653     9 
 2637  2654  2656  2640     9 
 2637  2654  2656  2657     9 
 2637  2654  2656  2658     9 
 2655  2654  2656  2640     9 
 2655  2654  2656  2657     9 
 2655  2654  2656  2658     9 
 2659  2654  2656  2640     9 
 2659  2654  2656  2657     9 
 2659  2654  2656  2658     9 
 2637  2654  2659  2660     9 
 2655  2654  2659  2660     9 
 2656  2654  2659  2660     9 
 2654  2659  2660  2661     9 
 2654  2659  2660  2662     9 
 2654  2659  2660  2663     9 
 2659  2660  2663  2664     9 
 2661  2660  2663  2664     9 
 2662  2660  2663  2664     9 
 2660  2663  2664  2665     9 
 2660  2663  2664  2666     9 
 2660  2663  2664  2667     9 
 2663  2664  2667  2668     9 
 2663  2664  2667  2669     9 
 2663  2664  2667  2684     9 
 2665  2664  2667  2668     9 
 2665  2664  2667  2669     9 
 2665  2664  2667  2684     9 
 2666  2664  2667  2668     9 
 2666  2664  2667  2669     9 
 2666  2664  2667  2684     9 
 2664  2667  2669  2670     9 
 2668  2667  2669  2670     9 
 2684  2667  2669  2670     9 
 2664  2667  2684  2685     9 
 2664  2667  2684  2686     9 
 2664  2667  2684  2689     9 
 2668  2667  2684  2685     9 
 2668  2667  2684  2686     9 
 2668  2667  2684  2689     9 
 2669  2667  2684  2685     9 
 2669  2667  2684  2686     9 
 2669  2667  2684  2689     9 
 2667  2669  2670  2671     9 
 2667  2669  2670  2672     9 
 2667  2669  2670  2686     9 
 2669  2670  2672  2673     9 
 2669  2670  2672  2682     9 
 2671  2670  2672  2673     9 
 2671  2670  2672  2682     9 
 2686  2670  2672  2673     9 
 2686  2670  2672  2682     9 
 2669  2670  2686  2684     9 
 2669  2670  2686  2687     9 
 2669  2670  2686  2688     9 
 2671  2670  2686  2684     9 
 2671  2670  2686  2687     9 
 2671  2670  2686  2688     9 
 2672  2670  2686  2684     9 
 2672  2670  2686  2687     9 
 2672  2670  2686  2688     9 
 2670  2672  2673  2674     9 
 2670  2672  2673  2675     9 
 2682  2672  2673  2674     9 
 2682  2672  2673  2675     9 
 2670  2672  2682  2681     9 
 2670  2672  2682  2683     9 
 2673  2672  2682  2681     9 
 2673  2672  2682  2683     9 
 2672  2673  2675  2676     9 
 2672  2673  2675  2677     9 
 2674  2673  2675  2676     9 
 2674  2673  2675  2677     9 
 2673  2675  2677  2678     9 
 2673  2675  2677  2681     9 
 2676  2675  2677  2678     9 
 2676  2675  2677  2681     9 
 2675  2677  2678  2679     9 
 2675  2677  2678  2680     9 
 2681  2677  2678  2679     9 
 2681  2677  2678  2680     9 
 2675  2677  2681  2682     9 
 2678  2677  2681  2682     9 
 2677  2681  2682  2672     9 
 2677  2681  2682  2683     9 
 2667  2684  2686  2670     9 
 2667  2684  2686  2687     9 
 2667  2684  2686  2688     9 
 2685  2684  2686  2670     9 
 2685  2684  2686  2687     9 
 2685  2684  2686  2688     9 
 2689  2684  2686  2670     9 
 2689  2684  2686  2687     9 
 2689  2684  2686  2688     9 
 2667  2684  2689  2690     9 
 2685  2684  2689  2690     9 
 2686  2684  2689  2690     9 
 2684  2689  2690  2691     9 
 2684  2689  2690  2692     9 
 2684  2689  2690  2693     9 
 2689  2690  2693  2694     9 
 2691  2690  2693  2694     9 
 2692  2690  2693  2694     9 
 2690  2693  2694  2695     9 
 2690  2693  2694  2696     9 
 2690  2693  2694  2697     9 
 2693  2694  2697  2698     9 
 2693  2694  2697  2699     9 
 2693  2694  2697  2714     9 
 2695  2694  2697  2698     9 
 2695  2694  2697  2699     9 
 2695  2694  2697  2714     9 
 2696  2694  2697  2698     9 
 2696  2694  2697  2699     9 
 2696  2694  2697  2714     9 
 2694  2697  2699  2700     9 
 2698  2697  2699  2700     9 
 2714  2697  2699  2700     9 
 2694  2697  2714  2715     9 
 2694  2697  2714  2716     9 
 2694  2697  2714  2719     9 
 2698  2697  2714  2715     9 
 2698  2697  2714  2716     9 
 2698  2697  2714  2719     9 
 2699  2697  2714  2715     9 
 2699  2697  2714  2716     9 
 2699  2697  2714  2719     9 
 2697  2699  2700  2701     9 
 2697  2699  2700  2702     9 
 2697  2699  2700  2716     9 
 2699  2700  2702  2703     9 
 2699  2700  2702  2712     9 
 2701  2700  2702  2703     9 
 2701  2700  2702  2712     9 
 2716  2700  2702  2703     9 
 2716  2700  2702  2712     9 
 2699  2700  2716  2714     9 
 2699  2700  2716  2717     9 
 2699  2700  2716  2718     9 
 2701  2700  2716  2714     9 
 2701  2700  2716  2717     9 
 2701  2700  2716  2718     9 
 2702  2700  2716  2714     9 
 2702  2700  2716  2717     9 
 2702  2700  2716  2718     9 
 2700  2702  2703  2704     9 
 2700  2702  2703  2705     9 
 2712  2702  2703  2704     9 
 2712  2702  2703  2705     9 
 2700  2702  2712  2711     9 
 2700  2702  2712  2713     9 
 2703  2702  2712  2711     9 
 2703  2702  2712  2713     9 
 2702  2703  2705  2706     9 
 2702  2703  2705  2707     9 
 2704  2703  2705  2706     9 
 2704  2703  2705  2707     9 
 2703  2705  2707  2708     9 
 2703  2705  2707  2711     9 
 2706  2705  2707  2708     9 
 2706  2705  2707  2711     9 
 2705  2707  2708  2709     9 
 2705  2707  2708  2710     9 
 2711  2707  2708  2709     9 
 2711  2707  2708  2710     9 
 2705  2707  2711  2712     9 
 2708  2707  2711  2712     9 
 2707  2711  2712  2702     9 
 2707  2711  2712  2713     9 
 2697  2714  2716  2700     9 
 2697  2714  2716  2717     9 
 2697  2714  2716  2718     9 
 2715  2714  2716  2700     9 
 2715  2714  2716  2717     9 
 2715  2714  2716  2718     9 
 2719  2714  2716  2700     9 
 2719  2714  2716  2717     9 
 2719  2714  2716  2718     9 
 2697  2714  2719  2720     9 
 2715  2714  2719  2720     9 
 2716  2714  2719  2720     9 
 2714  2719  2720  2721     9 
 2714  2719  2720  2722     9 
 2714  2719  2720  2723     9 
 2719  2720  2723  2724     9 
 2721  2720  2723  2724     9 
 2722  2720  2723  2724     9 
 2720  2723  2724  2725     9 
 2720  2723  2724  2726     9 
 2720  2723  2724  2727     9 
 2723  2724  2727  2728     9 
 2723  2724  2727  2729     9 
 2723  2724  2727  2744     9 
 2725  2724  2727  2728     9 
 2725  2724  2727  2729     9 
 2725  2724  2727  2744     9 
 2726  2724  2727  2728     9 
 2726  2724  2727  2729     9 
 2726  2724  2727  2744     9 
 2724  2727  2729  2730     9 
 2728  2727  2729  2730     9 
 2744  2727  2729  2730     9 
 2724  2727  2744  2745     9 
 2724  2727  2744  2746     9 
 2724  2727  2744  2749     9 
 2728  2727  2744  2745     9 
 2728  2727  2744  2746     9 
 2728  2727  2744  2749     9 
 2729  2727  2744  2745     9 
 2729  2727  2744  2746     9 
 2729  2727  2744  2749     9 
 2727  2729  2730  2731     9 
 2727  2729  2730  2732     9 
 2727  2729  2730  2746     9 
 2729  2730  2732  2733     9 
 2729  2730  2732  2742     9 
 2731  2730  2732  2733     9 
 2731  2730  2732  2742     9 
 2746  2730  2732  2733     9 
 2746  2730  2732  2742     9 
 2729  2730  2746  2744     9 
 2729  2730  2746  2747     9 
 2729  2730  2746  2748     9 
 2731  2730  2746  2744     9 
 2731  2730  2746  2747     9 
 2731  2730  2746  2748     9 
 2732  2730  2746  2744     9 
 2732  2730  2746  2747     9 
 2732  2730  2746  2748     9 
 2730  2732  2733  2734     9 
 2730  2732  2733  2735     9 
 2742  2732  2733  2734     9 
 2742  2732  2733  2735     9 
 2730  2732  2742  2741     9 
 2730  2732  2742  2743     9 
 2733  2732  2742  2741     9 
 2733  2732  2742  2743     9 
 2732  2733  2735  2736     9 
 2732  2733  2735  2737     9 
 2734  2733  2735  2736     9 
 2734  2733  2735  2737     9 
 2733  2735  2737  2738     9 
 2733  2735  2737  2741     9 
 2736  2735  2737  2738     9 
 2736  2735  2737  2741     9 
 2735  2737  2738  2739     9 
 2735  2737  2738  2740     9 
 2741  2737  2738  2739     9 
 2741  2737  2738  2740     9 
 2735  2737  2741  2742     9 
 2738  2737  2741  2742     9 
 2737  2741  2742  2732     9 
 2737  2741  2742  2743     9 
 2727  2744  2746  2730     9 
 2727  2744  2746  2747     9 
 2727  2744  2746  2748     9 
 2745  2744  2746  2730     9 
 2745  2744  2746  2747     9 
 2745  2744  2746  2748     9 
 2749  2744  2746  2730     9 
 2749  2744  2746  2747     9 
 2749  2744  2746  2748     9 
 2727  2744  2749  2750     9 
 2745  2744  2749  2750     9 
 2746  2744  2749  2750     9 
 2744  2749  2750  2751     9 
 2744  2749  2750  2752     9 
 2744  2749  2750  2753     9 
 2749  2750  2753  2754     9 
 2751  2750  2753  2754     9 
 2752  2750  2753  2754     9 
 2750  2753  2754  2755     9 
 2750  2753  2754  2756     9 
 2750  2753  2754  2757     9 
 2753  2754  2757  2758     9 
 2753  2754  2757  2759     9 
 2753  2754  2757  2777     9 
 2755  2754  2757  2758     9 
 2755  2754  2757  2759     9 
 2755  2754  2757  2777     9 
 2756  2754  2757  2758     9 
 2756  2754  2757  2759     9 
 2756  2754  2757  2777     9 
 2754  2757  2759  2760     9 
 2758  2757  2759  2760     9 
 2777  2757  2759  2760     9 
 2754  2757  2777  2778     9 
 2754  2757  2777  2779     9 
 2754  2757  2777  2782     9 
 2758  2757  2777  2778     9 
 2758  2757  2777  2779     9 
 2758  2757  2777  2782     9 
 2759  2757  2777  2778     9 
 2759  2757  2777  2779     9 
 2759  2757  2777  2782     9 
 2757  2759  2760  2761     9 
 2757  2759  2760  2762     9 
 2757  2759  2760  2779     9 
 2759  2760  2762  2763     9 
 2759  2760  2762  2776     9 
 2761  2760  2762  2763     9 
 2761  2760  2762  2776     9 
 2779  2760  2762  2763     9 
 2779  2760  2762  2776     9 
 2759  2760  2779  2777     9 
 2759  2760  2779  2780     9 
 2759  2760  2779  2781     9 
 2761  2760  2779  2777     9 
 2761  2760  2779  2780     9 
 2761  2760  2779  2781     9 
 2762  2760  2779  2777     9 
 2762  2760  2779  2780     9 
 2762  2760  2779  2781     9 
 2760  2762  2763  2764     9 
 2760  2762  2763  2765     9 
 2776  2762  2763  2764     9 
 2776  2762  2763  2765     9 
 2760  2762  2776  2766     9 
 2760  2762  2776  2775     9 
 2763  2762  2776  2766     9 
 2763  2762  2776  2775     9 
 2762  2763  2765  2766     9 
 2764  2763  2765  2766     9 
 2763  2765  2766  2767     9 
 2763  2765  2766  2776     9 
 2765  2766  2767  2768     9 
 2765  2766  2767  2769     9 
 2776  2766  2767  2768     9 
 2776  2766  2767  2769     9 
 2765  2766  2776  2762     9 
 2765  2766  2776  2775     9 
 2767  2766  2776  2762     9 
 2767  2766  2776  2775     9 
 2766  2767  2769  2770     9 
 2766  2767  2769  2771     9 
 2768  2767  2769  2770     9 
 2768  2767  2769  2771     9 
 2767  2769  2771  2772     9 
 2767  2769  2771  2775     9 
 2770  2769  2771  2772     9 
 2770  2769  2771  2775     9 
 2769  2771  2772  2773     9 
 2769  2771  2772  2774     9 
 2775  2771  2772  2773     9 
 2775  2771  2772  2774     9 
 2769  2771  2775  2776     9 
 2772  2771  2775  2776     9 
 2771  2775  2776  2762     9 
 2771  2775  2776  2766     9 
 2757  2777  2779  2760     9 
 2757  2777  2779  2780     9 
 2757  2777  2779  2781     9 
 2778  2777  2779  2760     9 
 2778  2777  2779  2780     9 
 2778  2777  2779  2781     9 
 2782  2777  2779  2760     9 
 2782  2777  2779  2780     9 
 2782  2777  2779  2781     9 
 2757  2777  2782  2783     9 
 2778  2777  2782  2783     9 
 2779  2777  2782  2783     9 
 2777  2782  2783  2784     9 
 2777  2782  2783  2785     9 
 2777  2782  2783  2786     9 
 2782  2783  2786  2787     9 
 2784  2783  2786  2787     9 
 2785  2783  2786  2787     9 
 2783  2786  2787  2788     9 
 2783  2786  2787  2789     9 
 2783  2786  2787  2790     9 
 2786  2787  2790  2791     9 
 2786  2787  2790  2792     9 
 2786  2787  2790  2807     9 
 2788  2787  2790  2791     9 
 2788  2787  2790  2792     9 
 2788  2787  2790  2807     9 
 2789  2787  2790  2791     9 
 2789  2787  2790  2792     9 
 2789  2787  2790  2807     9 
 2787  2790  2792  2793     9 
 2791  2790  2792  2793     9 
 2807  2790  2792  2793     9 
 2787  2790  2807  2808     9 
 2787  2790  2807  2809     9 
 2787  2790  2807  2812     9 
 2791  2790  2807  2808     9 
 2791  2790  2807  2809     9 
 2791  2790  2807  2812     9 
 2792  2790  2807  2808     9 
 2792  2790  2807  2809     9 
 2792  2790  2807  2812     9 
 2790  2792  2793  2794     9 
 2790  2792  2793  2795     9 
 2790  2792  2793  2809     9 
 2792  2793  2795  2796     9 
 2792  2793  2795  2805     9 
 2794  2793  2795  2796     9 
 2794  2793  2795  2805     9 
 2809  2793  2795  2796     9 
 2809  2793  2795  2805     9 
 2792  2793  2809  2807     9 
 2792  2793  2809  2810     9 
 2792  2793  2809  2811     9 
 2794  2793  2809  2807     9 
 2794  2793  2809  2810     9 
 2794  2793  2809  2811     9 
 2795  2793  2809  2807     9 
 2795  2793  2809  2810     9 
 2795  2793  2809  2811     9 
 2793  2795  2796  2797     9 
 2793  2795  2796  2798     9 
 2805  2795  2796  2797     9 
 2805  2795  2796  2798     9 
 2793  2795  2805  2804     9 
 2793  2795  2805  2806     9 
 2796  2795  2805  2804     9 
 2796  2795  2805  2806     9 
 2795  2796  2798  2799     9 
 2795  2796  2798  2800     9 
 2797  2796  2798  2799     9 
 2797  2796  2798  2800     9 
 2796  2798  2800  2801     9 
 2796  2798  2800  2804     9 
 2799  2798  2800  2801     9 
 2799  2798  2800  2804     9 
 2798  2800  2801  2802     9 
 2798  2800  2801  2803     9 
 2804  2800  2801  2802     9 
 2804  2800  2801  2803     9 
 2798  2800  2804  2805     9 
 2801  2800  2804  2805     9 
 2800  2804  2805  2795     9 
 2800  2804  2805  2806     9 
 2790  2807  2809  2793     9 
 2790  2807  2809  2810     9 
 2790  2807  2809  2811     9 
 2808  2807  2809  2793     9 
 2808  2807  2809  2810     9 
 2808  2807  2809  2811     9 
 2812  2807  2809  2793     9 
 2812  2807  2809  2810     9 
 2812  2807  2809  2811     9 
 2790  2807  2812  2813     9 
 2808  2807  2812  2813     9 
 2809  2807  2812  2813     9 
 2807  2812  2813  2814     9 
 2807  2812  2813  2815     9 
 2807  2812  2813  2816     9 
 2812  2813  2816  2817     9 
 2814  2813  2816  2817     9 
 2815  2813  2816  2817     9 
 2813  2816  2817  2818     9 
 2813  2816  2817  2819     9 
 2813  2816  2817  2820     9 
 2816  2817  2820  2821     9 
 2816  2817  2820  2822     9 
 2816  2817  2820  2837     9 
 2818  2817  2820  2821     9 
 2818  2817  2820  2822     9 
 2818  2817  2820  2837     9 
 2819  2817  2820  2821     9 
 2819  2817  2820  2822     9 
 2819  2817  2820  2837     9 
 2817  2820  2822  2823     9 
 2821  2820  2822  2823     9 
 2837  2820  2822  2823     9 
 2817  2820  2837  2838     9 
 2817  2820  2837  2839     9 
 2817  2820  2837  2842     9 
 2821  2820  2837  2838     9 
 2821  2820  2837  2839     9 
 2821  2820  2837  2842     9 
 2822  2820  2837  2838     9 
 2822  2820  2837  2839     9 
 2822  2820  2837  2842     9 
 2820  2822  2823  2824     9 
 2820  2822  2823  2825     9 
 2820  2822  2823  2839     9 
 2822  2823  2825  2826     9 
 2822  2823  2825  2835     9 
 2824  2823  2825  2826     9 
 2824  2823  2825  2835     9 
 2839  2823  2825  2826     9 
 2839  2823  2825  2835     9 
 2822  2823  2839  2837     9 
 2822  2823  2839  2840     9 
 2822  2823  2839  2841     9 
 2824  2823  2839  2837     9 
 2824  2823  2839  2840     9 
 2824  2823  2839  2841     9 
 2825  2823  2839  2837     9 
 2825  2823  2839  2840     9 
 2825  2823  2839  2841     9 
 2823  2825  2826  2827     9 
 2823  2825  2826  2828     9 
 2835  2825  2826  2827     9 
 2835  2825  2826  2828     9 
 2823  2825  2835  2834     9 
 2823  2825  2835  2836     9 
 2826  2825  2835  2834     9 
 2826  2825  2835  2836     9 
 2825  2826  2828  2829     9 
 2825  2826  2828  2830     9 
 2827  2826  2828  2829     9 
 2827  2826  2828  2830     9 
 2826  2828  2830  2831     9 
 2826  2828  2830  2834     9 
 2829  2828  2830  2831     9 
 2829  2828  2830  2834     9 
 2828  2830  2831  2832     9 
 2828  2830  2831  2833     9 
 2834  2830  2831  2832     9 
 2834  2830  2831  2833     9 
 2828  2830  2834  2835     9 
 2831  2830  2834  2835     9 
 2830  2834  2835  2825     9 
 2830  2834  2835  2836     9 
 2820  2837  2839  2823     9 
 2820  2837  2839  2840     9 
 2820  2837  2839  2841     9 
 2838  2837  2839  2823     9 
 2838  2837  2839  2840     9 
 2838  2837  2839  2841     9 
 2842  2837  2839  2823     9 
 2842  2837  2839  2840     9 
 2842  2837  2839  2841     9 
 2820  2837  2842  2843     9 
 2838  2837  2842  2843     9 
 2839  2837  2842  2843     9 
 2837  2842  2843  2844     9 
 2837  2842  2843  2845     9 
 2837  2842  2843  2846     9 
 2842  2843  2846  2847     9 
 2844  2843  2846  2847     9 
 2845  2843  2846  2847     9 
 2843  2846  2847  2848     9 
 2843  2846  2847  2849     9 
 2843  2846  2847  2850     9 
 2846  2847  2850  2851     9 
 2846  2847  2850  2852     9 
 2846  2847  2850  2870     9 
 2848  2847  2850  2851     9 
 2848  2847  2850  2852     9 
 2848  2847  2850  2870     9 
 2849  2847  2850  2851     9 
 2849  2847  2850  2852     9 
 2849  2847  2850  2870     9 
 2847  2850  2852  2853     9 
 2851  2850  2852  2853     9 
 2870  2850  2852  2853     9 
 2847  2850  2870  2871     9 
 2847  2850  2870  2872     9 
 2847  2850  2870  2875     9 
 2851  2850  2870  2871     9 
 2851  2850  2870  2872     9 
 2851  2850  2870  2875     9 
 2852  2850  2870  2871     9 
 2852  2850  2870  2872     9 
 2852  2850  2870  2875     9 
 2850  2852  2853  2854     9 
 2850  2852  2853  2855     9 
 2850  2852  2853  2872     9 
 2852  2853  2855  2856     9 
 2852  2853  2855  2869     9 
 2854  2853  2855  2856     9 
 2854  2853  2855  2869     9 
 2872  2853  2855  2856     9 
 2872  2853  2855  2869     9 
 2852  2853  2872  2870     9 
 2852  2853  2872  2873     9 
 2852  2853  2872  2874     9 
 2854  2853  2872  2870     9 
 2854  2853  2872  2873     9 
 2854  2853  2872  2874     9 
 2855  2853  2872  2870     9 
 2855  2853  2872  2873     9 
 2855  2853  2872  2874     9 
 2853  2855  2856  2857     9 
 2853  2855  2856  2858     9 
 2869  2855  2856  2857     9 
 2869  2855  2856  2858     9 
 2853  2855  2869  2859     9 
 2853  2855  2869  2868     9 
 2856  2855  2869  2859     9 
 2856  2855  2869  2868     9 
 2855  2856  2858  2859     9 
 2857  2856  2858  2859     9 
 2856  2858  2859  2860     9 
 2856  2858  2859  2869     9 
 2858  2859  2860  2861     9 
 2858  2859  2860  2862     9 
 2869  2859  2860  2861     9 
 2869  2859  2860  2862     9 
 2858  2859  2869  2855     9 
 2858  2859  2869  2868     9 
 2860  2859  2869  2855     9 
 2860  2859  2869  2868     9 
 2859  2860  2862  2863     9 
 2859  2860  2862  2864     9 
 2861  2860  2862  2863     9 
 2861  2860  2862  2864     9 
 2860  2862  2864  2865     9 
 2860  2862  2864  2868     9 
 2863  2862  2864  2865     9 
 2863  2862  2864  2868     9 
 2862  2864  2865  2866     9 
 2862  2864  2865  2867     9 
 2868  2864  2865  2866     9 
 2868  2864  2865  2867     9 
 2862  2864  2868  2869     9 
 2865  2864  2868  2869     9 
 2864  2868  2869  2855     9 
 2864  2868  2869  2859     9 
 2850  2870  2872  2853     9 
 2850  2870  2872  2873     9 
 2850  2870  2872  2874     9 
 2871  2870  2872  2853     9 
 2871  2870  2872  2873     9 
 2871  2870  2872  2874     9 
 2875  2870  2872  2853     9 
 2875  2870  2872  2873     9 
 2875  2870  2872  2874     9 
 2850  2870  2875  2876     9 
 2871  2870  2875  2876     9 
 2872  2870  2875  2876     9 
 2870  2875  2876  2877     9 
 2870  2875  2876  2878     9 
 2870  2875  2876  2879     9 
 2875  2876  2879  2880     9 
 2877  2876  2879  2880     9 
 2878  2876  2879  2880     9 
 2876  2879  2880  2881     9 
 2876  2879  2880  2882     9 
 2876  2879  2880  2883     9 
 2879  2880  2883  2884     9 
 2879  2880  2883  2885     9 
 2879  2880  2883  2900     9 
 2881  2880  2883  2884     9 
 2881  2880  2883  2885     9 
 2881  2880  2883  2900     9 
 2882  2880  2883  2884     9 
 2882  2880  2883  2885     9 
 2882  2880  2883  2900     9 
 2880  2883  2885  2886     9 
 2884  2883  2885  2886     9 
 2900  2883  2885  2886     9 
 2880  2883  2900  2901     9 
 2880  2883  2900  2902     9 
 2880  2883  2900  2905     9 
 2884  2883  2900  2901     9 
 2884  2883  2900  2902     9 
 2884  2883  2900  2905     9 
 2885  2883  2900  2901     9 
 2885  2883  2900  2902     9 
 2885  2883  2900  2905     9 
 2883  2885  2886  2887     9 
 2883  2885  2886  2888     9 
 2883  2885  2886  2902     9 
 2885  2886  2888  2889     9 
 2885  2886  2888  2898     9 
 2887  2886  2888  2889     9 
 2887  2886  2888  2898     9 
 2902  2886  2888  2889     9 
 2902  2886  2888  2898     9 
 2885  2886  2902  2900     9 
 2885  2886  2902  2903     9 
 2885  2886  2902  2904     9 
 2887  2886  2902  2900     9 
 2887  2886  2902  2903     9 
 2887  2886  2902  2904     9 
 2888  2886  2902  2900     9 
 2888  2886  2902  2903     9 
 2888  2886  2902  2904     9 
 2886  2888  2889  2890     9 
 2886  2888  2889  2891     9 
 2898  2888  2889  2890     9 
 2898  2888  2889  2891     9 
 2886  2888  2898  2897     9 
 2886  2888  2898  2899     9 
 2889  2888  2898  2897     9 
 2889  2888  2898  2899     9 
 2888  2889  2891  2892     9 
 2888  2889  2891  2893     9 
 2890  2889  2891  2892     9 
 2890  2889  2891  2893     9 
 2889  2891  2893  2894     9 
 2889  2891  2893  2897     9 
 2892  2891  2893  2894     9 
 2892  2891  2893  2897     9 
 2891  2893  2894  2895     9 
 2891  2893  2894  2896     9 
 2897  2893  2894  2895     9 
 2897  2893  2894  2896     9 
 2891  2893  2897  2898     9 
 2894  2893  2897  2898     9 
 2893  2897  2898  2888     9 
 2893  2897  2898  2899     9 
 2883  2900  2902  2886     9 
 2883  2900  2902  2903     9 
 2883  2900  2902  2904     9 
 2901  2900  2902  2886     9 
 2901  2900  2902  2903     9 
 2901  2900  2902  2904     9 
 2905  2900  2902  2886     9 
 2905  2900  2902  2903     9 
 2905  2900  2902  2904     9 
 2883  2900  2905  2906     9 
 2901  2900  2905  2906     9 
 2902  2900  2905  2906     9 
 2900  2905  2906  2907     9 
 2900  2905  2906  2908     9 
 2900  2905  2906  2909     9 
 2905  2906  2909  2910     9 
 2907  2906  2909  2910     9 
 2908  2906  2909  2910     9 
 2906  2909  2910  2911     9 
 2906  2909  2910  2912     9 
 2906  2909  2910  2913     9 
 2909  2910  2913  2914     9 
 2909  2910  2913  2915     9 
 2909  2910  2913  2930     9 
 2911  2910  2913  2914     9 
 2911  2910  2913  2915     9 
 2911  2910  2913  2930     9 
 2912  2910  2913  2914     9 
 2912  2910  2913  2915     9 
 2912  2910  2913  2930     9 
 2910  2913  2915  2916     9 
 2914  2913  2915  2916     9 
 2930  2913  2915  2916     9 
 2910  2913  2930  2931     9 
 2910  2913  2930  2932     9 
 2910  2913  2930  2935     9 
 2914  2913  2930  2931     9 
 2914  2913  2930  2932     9 
 2914  2913  2930  2935     9 
 2915  2913  2930  2931     9 
 2915  2913  2930  2932     9 
 2915  2913  2930  2935     9 
 2913  2915  2916  2917     9 
 2913  2915  2916  2918     9 
 2913  2915  2916  2932     9 
 2915  2916  2918  2919     9 
 2915  2916  2918  2928     9 
 2917  2916  2918  2919     9 
 2917  2916  2918  2928     9 
 2932  2916  2918  2919     9 
 2932  2916  2918  2928     9 
 2915  2916  2932  2930     9 
 2915  2916  2932  2933     9 
 2915  2916  2932  2934     9 
 2917  2916  2932  2930     9 
 2917  2916  2932  2933     9 
 2917  2916  2932  2934     9 
 2918  2916  2932  2930     9 
 2918  2916  2932  2933     9 
 2918  2916  2932  2934     9 
 2916  2918  2919  2920     9 
 2916  2918  2919  2921     9 
 2928  2918  2919  2920     9 
 2928  2918  2919  2921     9 
 2916  2918  2928  2927     9 
 2916  2918  2928  2929     9 
 2919  2918  2928  2927     9 
 2919  2918  2928  2929     9 
 2918  2919  2921  2922     9 
 2918  2919  2921  2923     9 
 2920  2919  2921  2922     9 
 2920  2919  2921  2923     9 
 2919  2921  2923  2924     9 
 2919  2921  2923  2927     9 
 2922  2921  2923  2924     9 
 2922  2921  2923  2927     9 
 2921  2923  2924  2925     9 
 2921  2923  2924  2926     9 
 2927  2923  2924  2925     9 
 2927  2923  2924  2926     9 
 2921  2923  2927  2928     9 
 2924  2923  2927  2928     9 
 2923  2927  2928  2918     9 
 2923  2927  2928  2929     9 
 2913  2930  2932  2916     9 
 2913  2930  2932  2933     9 
 2913  2930  2932  2934     9 
 2931  2930  2932  2916     9 
 2931  2930  2932  2933     9 
 2931  2930  2932  2934     9 
 2935  2930  2932  2916     9 
 2935  2930  2932  2933     9 
 2935  2930  2932  2934     9 
 2913  2930  2935  2936     9 
 2931  2930  2935  2936     9 
 2932  2930  2935  2936     9 
 2930  2935  2936  2937     9 
 2930  2935  2936  2938     9 
 2930  2935  2936  2939     9 
 2935  2936  2939  2940     9 
 2937  2936  2939  2940     9 
 2938  2936  2939  2940     9 
 2936  2939  2940  2941     9 
 2936  2939  2940  2942     9 
 2936  2939  2940  2943     9 
 2939  2940  2943  2944     9 
 2939  2940  2943  2945     9 
 2939  2940  2943  2963     9 
 2941  2940  2943  2944     9 
 2941  2940  2943  2945     9 
 2941  2940  2943  2963     9 
 2942  2940  2943  2944     9 
 2942  2940  2943  2945     9 
 2942  2940  2943  2963     9 
 2940  2943  2945  2946     9 
 2944  2943  2945  2946     9 
 2963  2943  2945  2946     9 
 2940  2943  2963  2964     9 
 2940  2943  2963  2965     9 
 2940  2943  2963  2968     9 
 2944  2943  2963  2964     9 
 2944  2943  2963  2965     9 
 2944  2943  2963  2968     9 
 2945  2943  2963  2964     9 
 2945  2943  2963  2965     9 
 2945  2943  2963  2968     9 
 2943  2945  2946  2947     9 
 2943  2945  2946  2948     9 
 2943  2945  2946  2965     9 
 2945  2946  2948  2949     9 
 2945  2946  2948  2962     9 
 2947  2946  2948  2949     9 
 2947  2946  2948  2962     9 
 2965  2946  2948  2949     9 
 2965  2946  2948  2962     9 
 2945  2946  2965  2963     9 
 2945  2946  2965  2966     9 
 2945  2946  2965  2967     9 
 2947  2946  2965  2963     9 
 2947  2946  2965  2966     9 
 2947  2946  2965  2967     9 
 2948  2946  2965  2963     9 
 2948  2946  2965  2966     9 
 2948  2946  2965  2967     9 
 2946  2948  2949  2950     9 
 2946  2948  2949  2951     9 
 2962  2948  2949  2950     9 
 2962  2948  2949  2951     9 
 2946  2948  2962  2952     9 
 2946  2948  2962  2961     9 
 2949  2948  2962  2952     9 
 2949  2948  2962  2961     9 
 2948  2949  2951  2952     9 
 2950  2949  2951  2952     9 
 2949  2951  2952  2953     9 
 2949  2951  2952  2962     9 
 2951  2952  2953  2954     9 
 2951  2952  2953  2955     9 
 2962  2952  2953  2954     9 
 2962  2952  2953  2955     9 
 2951  2952  2962  2948     9 
 2951  2952  2962  2961     9 
 2953  2952  2962  2948     9 
 2953  2952  2962  2961     9 
 2952  2953  2955  2956     9 
 2952  2953  2955  2957     9 
 2954  2953  2955  2956     9 
 2954  2953  2955  2957     9 
 2953  2955  2957  2958     9 
 2953  2955  2957  2961     9 
 2956  2955  2957  2958     9 
 2956  2955  2957  2961     9 
 2955  2957  2958  2959     9 
 2955  2957  2958  2960     9 
 2961  2957  2958  2959     9 
 2961  2957  2958  2960     9 
 2955  2957  2961  2962     9 
 2958  2957  2961  2962     9 
 2957  2961  2962  2948     9 
 2957  2961  2962  2952     9 
 2943  2963  2965  2946     9 
 2943  2963  2965  2966     9 
 2943  2963  2965  2967     9 
 2964  2963  2965  2946     9 
 2964  2963  2965  2966     9 
 2964  2963  2965  2967     9 
 2968  2963  2965  2946     9 
 2968  2963  2965  2966     9 
 2968  2963  2965  2967     9 
 2943  2963  2968  2969     9 
 2964  2963  2968  2969     9 
 2965  2963  2968  2969     9 
 2963  2968  2969  2970     9 
 2963  2968  2969  2971     9 
 2963  2968  2969  2972     9 
 2968  2969  2972  2973     9 
 2970  2969  2972  2973     9 
 2971  2969  2972  2973     9 
 2969  2972  2973  2974     9 
 2969  2972  2973  2975     9 
 2969  2972  2973  2976     9 
 2972  2973  2976  2977     9 
 2972  2973  2976  2978     9 
 2972  2973  2976  2993     9 
 2974  2973  2976  2977     9 
 2974  2973  2976  2978     9 
 2974  2973  2976  2993     9 
 2975  2973  2976  2977     9 
 2975  2973  2976  2978     9 
 2975  2973  2976  2993     9 
 2973  2976  2978  2979     9 
 2977  2976  2978  2979     9 
 2993  2976  2978  2979     9 
 2973  2976  2993  2994     9 
 2973  2976  2993  2995     9 
 2973  2976  2993  2998     9 
 2977  2976  2993  2994     9 
 2977  2976  2993  2995     9 
 2977  2976  2993  2998     9 
 2978  2976  2993  2994     9 
 2978  2976  2993  2995     9 
 2978  2976  2993  2998     9 
 2976  2978  2979  2980     9 
 2976  2978  2979  2981     9 
 2976  2978  2979  2995     9 
 2978  2979  2981  2982     9 
 2978  2979  2981  2991     9 
 2980  2979  2981  2982     9 
 2980  2979  2981  2991     9 
 2995  2979  2981  2982     9 
 2995  2979  2981  2991     9 
 2978  2979  2995  2993     9 
 2978  2979  2995  2996     9 
 2978  2979  2995  2997     9 
 2980  2979  2995  2993     9 
 2980  2979  2995  2996     9 
 2980  2979  2995  2997     9 
 2981  2979  2995  2993     9 
 2981  2979  2995  2996     9 
 2981  2979  2995  2997     9 
 2979  2981  2982  2983     9 
 2979  2981  2982  2984     9 
 2991  2981  2982  2983     9 
 2991  2981  2982  2984     9 
 2979  2981  2991  2990     9 
 2979  2981  2991  2992     9 
 2982  2981  2991  2990     9 
 2982  2981  2991  2992     9 
 2981  2982  2984  2985     9 
 2981  2982  2984  2986     9 
 2983  2982  2984  2985     9 
 2983  2982  2984  2986     9 
 2982  2984  2986  2987     9 
 2982  2984  2986  2990     9 
 2985  2984  2986  2987     9 
 2985  2984  2986  2990     9 
 2984  2986  2987  2988     9 
 2984  2986  2987  2989     9 
 2990  2986  2987  2988     9 
 2990  2986  2987  2989     9 
 2984  2986  2990  2991     9 
 2987  2986  2990  2991     9 
 2986  2990  2991  2981     9 
 2986  2990  2991  2992     9 
 2976  2993  2995  2979     9 
 2976  2993  2995  2996     9 
 2976  2993  2995  2997     9 
 2994  2993  2995  2979     9 
 2994  2993  2995  2996     9 
 2994  2993  2995  2997     9 
 2998  2993  2995  2979     9 
 2998  2993  2995  2996     9 
 2998  2993  2995  2997     9 
 2976  2993  2998  2999     9 
 2994  2993  2998  2999     9 
 2995  2993  2998  2999     9 
 2993  2998  2999  3000     9 
 2993  2998  2999  3001     9 
 2993  2998  2999  3002     9 
 2998  2999  3002  3003     9 
 3000  2999  3002  3003     9 
 3001  2999  3002  3003     9 
 2999  3002  3003  3004     9 
 2999  3002  3003  3005     9 
 2999  3002  3003  3006     9 
 3002  3003  3006  3007     9 
 3002  3003  3006  3008     9 
 3002  3003  3006  3023     9 
 3004  3003  3006  3007     9 
 3004  3003  3006  3008     9 
 3004  3003  3006  3023     9 
 3005  3003  3006  3007     9 
 3005  3003  3006  3008     9 
 3005  3003  3006  3023     9 
 3003  3006  3008  3009     9 
 3007  3006  3008  3009     9 
 3023  3006  3008  3009     9 
 3003  3006  3023  3024     9 
 3003  3006  3023  3025     9 
 3003  3006  3023  3028     9 
 3007  3006  3023  3024     9 
 3007  3006  3023  3025     9 
 3007  3006  3023  3028     9 
 3008  3006  3023  3024     9 
 3008  3006  3023  3025     9 
 3008  3006  3023  3028     9 
 3006  3008  3009  3010     9 
 3006  3008  3009  3011     9 
 3006  3008  3009  3025     9 
 3008  3009  3011  3012     9 
 3008  3009  3011  3021     9 
 3010  3009  3011  3012     9 
 3010  3009  3011  3021     9 
 3025  3009  3011  3012     9 
 3025  3009  3011  3021     9 
 3008  3009  3025  3023     9 
 3008  3009  3025  3026     9 
 3008  3009  3025  3027     9 
 3010  3009  3025  3023     9 
 3010  3009  3025  3026     9 
 3010  3009  3025  3027     9 
 3011  3009  3025  3023     9 
 3011  3009  3025  3026     9 
 3011  3009  3025  3027     9 
 3009  3011  3012  3013     9 
 3009  3011  3012  3014     9 
 3021  3011  3012  3013     9 
 3021  3011  3012  3014     9 
 3009  3011  3021  3020     9 
 3009  3011  3021  3022     9 
 3012  3011  3021  3020     9 
 3012  3011  3021  3022     9 
 3011  3012  3014  3015     9 
 3011  3012  3014  3016     9 
 3013  3012  3014  3015     9 
 3013  3012  3014  3016     9 
 3012  3014  3016  3017     9 
 3012  3014  3016  3020     9 
 3015  3014  3016  3017     9 
 3015  3014  3016  3020     9 
 3014  3016  3017  3018     9 
 3014  3016  3017  3019     9 
 3020  3016  3017  3018     9 
 3020  3016  3017  3019     9 
 3014  3016  3020  3021     9 
 3017  3016  3020  3021     9 
 3016  3020  3021  3011     9 
 3016  3020  3021  3022     9 
 3006  3023  3025  3009     9 
 3006  3023  3025  3026     9 
 3006  3023  3025  3027     9 
 3024  3023  3025  3009     9 
 3024  3023  3025  3026     9 
 3024  3023  3025  3027     9 
 3028  3023  3025  3009     9 
 3028  3023  3025  3026     9 
 3028  3023  3025  3027     9 
 3006  3023  3028  3029     9 
 3024  3023  3028  3029     9 
 3025  3023  3028  3029     9 
 3023  3028  3029  3030     9 
 3023  3028  3029  3031     9 
 3023  3028  3029  3032     9 
 3028  3029  3032  3033     9 
 3030  3029  3032  3033     9 
 3031  3029  3032  3033     9 
 3029  3032  3033  3034     9 
 3029  3032  3033  3035     9 
 3029  3032  3033  3036     9 
 3032  3033  3036  3037     9 
 3032  3033  3036  3038     9 
 3032  3033  3036  3055     9 
 3034  3033  3036  3037     9 
 3034  3033  3036  3038     9 
 3034  3033  3036  3055     9 
 3035  3033  3036  3037     9 
 3035  3033  3036  3038     9 
 3035  3033  3036  3055     9 
 3033  3036  3038  3039     9 
 3037  3036  3038  3039     9 
 3055  3036  3038  3039     9 
 3033  3036  3055  3056     9 
 3033  3036  3055  3057     9 
 3033  3036  3055  3060     9 
 3037  3036  3055  3056     9 
 3037  3036  3055  3057     9 
 3037  3036  3055  3060     9 
 3038  3036  3055  3056     9 
 3038  3036  3055  3057     9 
 3038  3036  3055  3060     9 
 3036  3038  3039  3040     9 
 3036  3038  3039  3041     9 
 3036  3038  3039  3057     9 
 3038  3039  3041  3042     9 
 3038  3039  3041  3053     9 
 3040  3039  3041  3042     9 
 3040  3039  3041  3053     9 
 3057  3039  3041  3042     9 
 3057  3039  3041  3053     9 
 3038  3039  3057  3055     9 
 3038  3039  3057  3058     9 
 3038  3039  3057  3059     9 
 3040  3039  3057  3055     9 
 3040  3039  3057  3058     9 
 3040  3039  3057  3059     9 
 3041  3039  3057  3055     9 
 3041  3039  3057  3058     9 
 3041  3039  3057  3059     9 
 3039  3041  3042  3043     9 
 3039  3041  3042  3044     9 
 3053  3041  3042  3043     9 
 3053  3041  3042  3044     9 
 3039  3041  3053  3051     9 
 3039  3041  3053  3054     9 
 3042  3041  3053  3051     9 
 3042  3041  3053  3054     9 
 3041  3042  3044  3045     9 
 3041  3042  3044  3049     9 
 3043  3042  3044  3045     9 
 3043  3042  3044  3049     9 
 3042  3044  3045  3046     9 
 3042  3044  3045  3047     9 
 3042  3044  3045  3048     9 
 3049  3044  3045  3046     9 
 3049  3044  3045  3047     9 
 3049  3044  3045  3048     9 
 3042  3044  3049  3050     9 
 3042  3044  3049  3051     9 
 3045  3044  3049  3050     9 
 3045  3044  3049  3051     9 
 3044  3049  3051  3052     9 
 3044  3049  3051  3053     9 
 3050  3049  3051  3052     9 
 3050  3049  3051  3053     9 
 3049  3051  3053  3041     9 
 3049  3051  3053  3054     9 
 3052  3051  3053  3041     9 
 3052  3051  3053  3054     9 
 3036  3055  3057  3039     9 
 3036  3055  3057  3058     9 
 3036  3055  3057  3059     9 
 3056  3055  3057  3039     9 
 3056  3055  3057  3058     9 
 3056  3055  3057  3059     9 
 3060  3055  3057  3039     9 
 3060  3055  3057  3058     9 
 3060  3055  3057  3059     9 
 3036  3055  3060  3061     9 
 3056  3055  3060  3061     9 
 3057  3055  3060  3061     9 
 3055  3060  3061  3062     9 
 3055  3060  3061  3063     9 
 3055  3060  3061  3064     9 
 3060  3061  3064  3065     9 
 3062  3061  3064  3065     9 
 3063  3061  3064  3065     9 
 3061  3064  3065  3066     9 
 3061  3064  3065  3067     9 
 3061  3064  3065  3068     9 
 3064  3065  3068  3069     9 
 3064  3065  3068  3070     9 
 3064  3065  3068  3087     9 
 3066  3065  3068  3069     9 
 3066  3065  3068  3070     9 
 3066  3065  3068  3087     9 
 3067  3065  3068  3069     9 
 3067  3065  3068  3070     9 
 3067  3065  3068  3087     9 
 3065  3068  3070  3071     9 
 3069  3068  3070  3071     9 
 3087  3068  3070  3071     9 
 3065  3068  3087  3088     9 
 3065  3068  3087  3089     9 
 3065  3068  3087  3092     9 
 3069  3068  3087  3088     9 
 3069  3068  3087  3089     9 
 3069  3068  3087  3092     9 
 3070  3068  3087  3088     9 
 3070  3068  3087  3089     9 
 3070  3068  3087  3092     9 
 3068  3070  3071  3072     9 
 3068  3070  3071  3073     9 
 3068  3070  3071  3089     9 
 3070  3071  3073  3074     9 
 3070  3071  3073  3085     9 
 3072  3071  3073  3074     9 
 3072  3071  3073  3085     9 
 3089  3071  3073  3074     9 
 3089  3071  3073  3085     9 
 3070  3071  3089  3087     9 
 3070  3071  3089  3090     9 
 3070  3071  3089  3091     9 
 3072  3071  3089  3087     9 
 3072  3071  3089  3090     9 
 3072  3071  3089  3091     9 
 3073  3071  3089  3087     9 
 3073  3071  3089  3090     9 
 3073  3071  3089  3091     9 
 3071  3073  3074  3075     9 
 3071  3073  3074  3076     9 
 3085  3073  3074  3075     9 
 3085  3073  3074  3076     9 
 3071  3073  3085  3083     9 
 3071  3073  3085  3086     9 
 3074  3073  3085  3083     9 
 3074  3073  3085  3086     9 
 3073  3074  3076  3077     9 
 3073  3074  3076  3081     9 
 3075  3074  3076  3077     9 
 3075  3074  3076  3081     9 
 3074  3076  3077  3078     9 
 3074  3076  3077  3079     9 
 3074  3076  3077  3080     9 
 3081  3076  3077  3078     9 
 3081  3076  3077  3079     9 
 3081  3076  3077  3080     9 
 3074  3076  3081  3082     9 
 3074  3076  3081  3083     9 
 3077  3076  3081  3082     9 
 3077  3076  3081  3083     9 
 3076  3081  3083  3084     9 
 3076  3081  3083  3085     9 
 3082  3081  3083  3084     9 
 3082  3081  3083  3085     9 
 3081  3083  3085  3073     9 
 3081  3083  3085  3086     9 
 3084  3083  3085  3073     9 
 3084  3083  3085  3086     9 
 3068  3087  3089  3071     9 
 3068  3087  3089  3090     9 
 3068  3087  3089  3091     9 
 3088  3087  3089  3071     9 
 3088  3087  3089  3090     9 
 3088  3087  3089  3091     9 
 3092  3087  3089  3071     9 
 3092  3087  3089  3090     9 
 3092  3087  3089  3091     9 
 3068  3087  3092  3093     9 
 3088  3087  3092  3093     9 
 3089  3087  3092  3093     9 
 3087  3092  3093  3094     9 
 3087  3092  3093  3095     9 
 3087  3092  3093  3096     9 
 3092  3093  3096  3097     9 
 3094  3093  3096  3097     9 
 3095  3093  3096  3097     9 
 3093  3096  3097  3098     9 
 3093  3096  3097  3099     9 
 3093  3096  3097  3100     9 
 3096  3097  3100  3101     9 
 3096  3097  3100  3102     9 
 3096  3097  3100  3117     9 
 3098  3097  3100  3101     9 
 3098  3097  3100  3102     9 
 3098  3097  3100  3117     9 
 3099  3097  3100  3101     9 
 3099  3097  3100  3102     9 
 3099  3097  3100  3117     9 
 3097  3100  3102  3103     9 
 3101  3100  3102  3103     9 
 3117  3100  3102  3103     9 
 3097  3100  3117  3118     9 
 3097  3100  3117  3119     9 
 3097  3100  3117  3122     9 
 3101  3100  3117  3118     9 
 3101  3100  3117  3119     9 
 3101  3100  3117  3122     9 
 3102  3100  3117  3118     9 
 3102  3100  3117  3119     9 
 3102  3100  3117  3122     9 
 3100  3102  3103  3104     9 
 3100  3102  3103  3105     9 
 3100  3102  3103  3119     9 
 3102  3103  3105  3106     9 
 3102  3103  3105  3115     9 
 3104  3103  3105  3106     9 
 3104  3103  3105  3115     9 
 3119  3103  3105  3106     9 
 3119  3103  3105  3115     9 
 3102  3103  3119  3117     9 
 3102  3103  3119  3120     9 
 3102  3103  3119  3121     9 
 3104  3103  3119  3117     9 
 3104  3103  3119  3120     9 
 3104  3103  3119  3121     9 
 3105  3103  3119  3117     9 
 3105  3103  3119  3120     9 
 3105  3103  3119  3121     9 
 3103  3105  3106  3107     9 
 3103  3105  3106  3108     9 
 3115  3105  3106  3107     9 
 3115  3105  3106  3108     9 
 3103  3105  3115  3114     9 
 3103  3105  3115  3116     9 
 3106  3105  3115  3114     9 
 3106  3105  3115  3116     9 
 3105  3106  3108  3109     9 
 3105  3106  3108  3110     9 
 3107  3106  3108  3109     9 
 3107  3106  3108  3110     9 
 3106  3108  3110  3111     9 
 3106  3108  3110  3114     9 
 3109  3108  3110  3111     9 
 3109  3108  3110  3114     9 
 3108  3110  3111  3112     9 
 3108  3110  3111  3113     9 
 3114  3110  3111  3112     9 
 3114  3110  3111  3113     9 
 3108  3110  3114  3115     9 
 3111  3110  3114  3115     9 
 3110  3114  3115  3105     9 
 3110  3114  3115  3116     9 
 3100  3117  3119  3103     9 
 3100  3117  3119  3120     9 
 3100  3117  3119  3121     9 
 3118  3117  3119  3103     9 
 3118  3117  3119  3120     9 
 3118  3117  3119  3121     9 
 3122  3117  3119  3103     9 
 3122  3117  3119  3120     9 
 3122  3117  3119  3121     9 
 3100  3117  3122  3123     9 
 3118  3117  3122  3123     9 
 3119  3117  3122  3123     9 
 3117  3122  3123  3124     9 
 3117  3122  3123  3125     9 
 3117  3122  3123  3126     9 
 3122  3123  3126  3127     9 
 3124  3123  3126  3127     9 
 3125  3123  3126  3127     9 
 3123  3126  3127  3128     9 
 3123  3126  3127  3129     9 
 3123  3126  3127  3130     9 
 3126  3127  3130  3131     9 
 3126  3127  3130  3132     9 
 3126  3127  3130  3149     9 
 3128  3127  3130  3131     9 
 3128  3127  3130  3132     9 
 3128  3127  3130  3149     9 
 3129  3127  3130  3131     9 
 3129  3127  3130  3132     9 
 3129  3127  3130  3149     9 
 3127  3130  3132  3133     9 
 3131  3130  3132  3133     9 
 3149  3130  3132  3133     9 
 3127  3130  3149  3150     9 
 3127  3130  3149  3151     9 
 3127  3130  3149  3154     9 
 3131  3130  3149  3150     9 
 3131  3130  3149  3151     9 
 3131  3130  3149  3154     9 
 3132  3130  3149  3150     9 
 3132  3130  3149  3151     9 
 3132  3130  3149  3154     9 
 3130  3132  3133  3134     9 
 3130  3132  3133  3135     9 
 3130  3132  3133  3151     9 
 3132  3133  3135  3136     9 
 3132  3133  3135  3148     9 
 3134  3133  3135  3136     9 
 3134  3133  3135  3148     9 
 3151  3133  3135  3136     9 
 3151  3133  3135  3148     9 
 3132  3133  3151  3149     9 
 3132  3133  3151  3152     9 
 3132  3133  3151  3153     9 
 3134  3133  3151  3149     9 
 3134  3133  3151  3152     9 
 3134  3133  3151  3153     9 
 3135  3133  3151  3149     9 
 3135  3133  3151  3152     9 
 3135  3133  3151  3153     9 
 3133  3135  3136  3137     9 
 3133  3135  3136  3138     9 
 3148  3135  3136  3137     9 
 3148  3135  3136  3138     9 
 3133  3135  3148  3139     9 
 3133  3135  3148  3147     9 
 3136  3135  3148  3139     9 
 3136  3135  3148  3147     9 
 3135  3136  3138  3139     9 
 3137  3136  3138  3139     9 
 3136  3138  3139  3140     9 
 3136  3138  3139  3148     9 
 3138  3139  3140  3141     9 
 3138  3139  3140  3144     9 
 3148  3139  3140  3141     9 
 3148  3139  3140  3144     9 
 3138  3139  3148  3135     9 
 3138  3139  3148  3147     9 
 3140  3139  3148  3135     9 
 3140  3139  3148  3147     9 
 3139  3140  3141  3142     9 
 3139  3140  3141  3143     9 
 3144  3140  3141  3142     9 
 3144  3140  3141  3143     9 
 3139  3140  3144  3145     9 
 3141  3140  3144  3145     9 
 3140  3144  3145  3146     9 
 3140  3144  3145  3147     9 
 3144  3145  3147  3148     9 
 3146  3145  3147  3148     9 
 3145  3147  3148  3135     9 
 3145  3147  3148  3139     9 
 3130  3149  3151  3133     9 
 3130  3149  3151  3152     9 
 3130  3149  3151  3153     9 
 3150  3149  3151  3133     9 
 3150  3149  3151  3152     9 
 3150  3149  3151  3153     9 
 3154  3149  3151  3133     9 
 3154  3149  3151  3152     9 
 3154  3149  3151  3153     9 
 3130  3149  3154  3155     9 
 3150  3149  3154  3155     9 
 3151  3149  3154  3155     9 
 3149  3154  3155  3156     9 
 3149  3154  3155  3157     9 
 3149  3154  3155  3158     9 
 3154  3155  3158  3159     9 
 3156  3155  3158  3159     9 
 3157  3155  3158  3159     9 
 3155  3158  3159  3160     9 
 3155  3158  3159  3161     9 
 3155  3158  3159  3162     9 
 3158  3159  3162  3163     9 
 3158  3159  3162  3164     9 
 3158  3159  3162  3182     9 
 3160  3159  3162  3163     9 
 3160  3159  3162  3164     9 
 3160  3159  3162  3182     9 
 3161  3159  3162  3163     9 
 3161  3159  3162  3164     9 
 3161  3159  3162  3182     9 
 3159  3162  3164  3165     9 
 3163  3162  3164  3165     9 
 3182  3162  3164  3165     9 
 3159  3162  3182  3183     9 
 3159  3162  3182  3184     9 
 3159  3162  3182  3187     9 
 3163  3162  3182  3183     9 
 3163  3162  3182  3184     9 
 3163  3162  3182  3187     9 
 3164  3162  3182  3183     9 
 3164  3162  3182  3184     9 
 3164  3162  3182  3187     9 
 3162  3164  3165  3166     9 
 3162  3164  3165  3167     9 
 3162  3164  3165  3184     9 
 3164  3165  3167  3168     9 
 3164  3165  3167  3181     9 
 3166  3165  3167  3168     9 
 3166  3165  3167  3181     9 
 3184  3165  3167  3168     9 
 3184  3165  3167  3181     9 
 3164  3165  3184  3182     9 
 3164  3165  3184  3185     9 
 3164  3165  3184  3186     9 
 3166  3165  3184  3182     9 
 3166  3165  3184  3185     9 
 3166  3165  3184  3186     9 
 3167  3165  3184  3182     9 
 3167  3165  3184  3185     9 
 3167  3165  3184  3186     9 
 3165  3167  3168  3169     9 
 3165  3167  3168  3170     9 
 3181  3167  3168  3169     9 
 3181  3167  3168  3170     9 
 3165  3167  3181  3171     9 
 3165  3167  3181  3180     9 
 3168  3167  3181  3171     9 
 3168  3167  3181  3180     9 
 3167  3168  3170  3171     9 
 3169  3168  3170  3171     9 
 3168  3170  3171  3172     9 
 3168  3170  3171  3181     9 
 3170  3171  3172  3173     9 
 3170  3171  3172  3174     9 
 3181  3171  3172  3173     9 
 3181  3171  3172  3174     9 
 3170  3171  3181  3167     9 
 3170  3171  3181  3180     9 
 3172  3171  3181  3167     9 
 3172  3171  3181  3180     9 
 3171  3172  3174  3175     9 
 3171  3172  3174  3176     9 
 3173  3172  3174  3175     9 
 3173  3172  3174  3176     9 
 3172  3174  3176  3177     9 
 3172  3174  3176  3180     9 
 3175  3174  3176  3177     9 
 3175  3174  3176  3180     9 
 3174  3176  3177  3178     9 
 3174  3176  3177  3179     9 
 3180  3176  3177  3178     9 
 3180  3176  3177  3179     9 
 3174  3176  3180  3181     9 
 3177  3176  3180  3181     9 
 3176  3180  3181  3167     9 
 3176  3180  3181  3171     9 
 3162  3182  3184  3165     9 
 3162  3182  3184  3185     9 
 3162  3182  3184  3186     9 
 3183  3182  3184  3165     9 
 3183  3182  3184  3185     9 
 3183  3182  3184  3186     9 
 3187  3182  3184  3165     9 
 3187  3182  3184  3185     9 
 3187  3182  3184  3186     9 
 3162  3182  3187  3188     9 
 3183  3182  3187  3188     9 
 3184  3182  3187  3188     9 
 3182  3187  3188  3189     9 
 3182  3187  3188  3190     9 
 3182  3187  3188  3191     9 
 3187  3188  3191  3192     9 
 3189  3188  3191  3192     9 
 3190  3188  3191  3192     9 
 3188  3191  3192  3193     9 
 3188  3191  3192  3194     9 
 3188  3191  3192  3195     9 
 3191  3192  3195  3196     9 
 3191  3192  3195  3197     9 
 3191  3192  3195  3214     9 
 3193  3192  3195  3196     9 
 3193  3192  3195  3197     9 
 3193  3192  3195  3214     9 
 3194  3192  3195  3196     9 
 3194  3192  3195  3197     9 
 3194  3192  3195  3214     9 
 3192  3195  3197  3198     9 
 3196  3195  3197  3198     9 
 3214  3195  3197  3198     9 
 3192  3195  3214  3215     9 
 3192  3195  3214  3216     9 
 3192  3195  3214  3219     9 
 3196  3195  3214  3215     9 
 3196  3195  3214  3216     9 
 3196  3195  3214  3219     9 
 3197  3195  3214  3215     9 
 3197  3195  3214  3216     9 
 3197  3195  3214  3219     9 
 3195  3197  3198  3199     9 
 3195  3197  3198  3200     9 
 3195  3197  3198  3216     9 
 3197  3198  3200  3201     9 
 3197  3198  3200  3212     9 
 3199  3198  3200  3201     9 
 3199  3198  3200  3212     9 
 3216  3198  3200  3201     9 
 3216  3198  3200  3212     9 
 3197  3198  3216  3214     9 
 3197  3198  3216  3217     9 
 3197  3198  3216  3218     9 
 3199  3198  3216  3214     9 
 3199  3198  3216  3217     9 
 3199  3198  3216  3218     9 
 3200  3198  3216  3214     9 
 3200  3198  3216  3217     9 
 3200  3198  3216  3218     9 
 3198  3200  3201  3202     9 
 3198  3200  3201  3203     9 
 3212  3200  3201  3202     9 
 3212  3200  3201  3203     9 
 3198  3200  3212  3210     9 
 3198  3200  3212  3213     9 
 3201  3200  3212  3210     9 
 3201  3200  3212  3213     9 
 3200  3201  3203  3204     9 
 3200  3201  3203  3208     9 
 3202  3201  3203  3204     9 
 3202  3201  3203  3208     9 
 3201  3203  3204  3205     9 
 3201  3203  3204  3206     9 
 3201  3203  3204  3207     9 
 3208  3203  3204  3205     9 
 3208  3203  3204  3206     9 
 3208  3203  3204  3207     9 
 3201  3203  3208  3209     9 
 3201  3203  3208  3210     9 
 3204  3203  3208  3209     9 
 3204  3203  3208  3210     9 
 3203  3208  3210  3211     9 
 3203  3208  3210  3212     9 
 3209  3208  3210  3211     9 
 3209  3208  3210  3212     9 
 3208  3210  3212  3200     9 
 3208  3210  3212  3213     9 
 3211  3210  3212  3200     9 
 3211  3210  3212  3213     9 
 3195  3214  3216  3198     9 
 3195  3214  3216  3217     9 
 3195  3214  3216  3218     9 
 3215  3214  3216  3198     9 
 3215  3214  3216  3217     9 
 3215  3214  3216  3218     9 
 3219  3214  3216  3198     9 
 3219  3214  3216  3217     9 
 3219  3214  3216  3218     9 
 3195  3214  3219  3220     9 
 3215  3214  3219  3220     9 
 3216  3214  3219  3220     9 
 3214  3219  3220  3221     9 
 3214  3219  3220  3222     9 
 3214  3219  3220  3223     9 
 3219  3220  3223  3224     9 
 3221  3220  3223  3224     9 
 3222  3220  3223  3224     9 
 3220  3223  3224  3225     9 
 3220  3223  3224  3226     9 
 3220  3223  3224  3227     9 
 3223  3224  3227  3228     9 
 3223  3224  3227  3229     9 
 3223  3224  3227  3247     9 
 3225  3224  3227  3228     9 
 3225  3224  3227  3229     9 
 3225  3224  3227  3247     9 
 3226  3224  3227  3228     9 
 3226  3224  3227  3229     9 
 3226  3224  3227  3247     9 
 3224  3227  3229  3230     9 
 3228  3227  3229  3230     9 
 3247  3227  3229  3230     9 
 3224  3227  3247  3248     9 
 3224  3227  3247  3249     9 
 3224  3227  3247  3252     9 
 3228  3227  3247  3248     9 
 3228  3227  3247  3249     9 
 3228  3227  3247  3252     9 
 3229  3227  3247  3248     9 
 3229  3227  3247  3249     9 
 3229  3227  3247  3252     9 
 3227  3229  3230  3231     9 
 3227  3229  3230  3232     9 
 3227  3229  3230  3249     9 
 3229  3230  3232  3233     9 
 3229  3230  3232  3246     9 
 3231  3230  3232  3233     9 
 3231  3230  3232  3246     9 
 3249  3230  3232  3233     9 
 3249  3230  3232  3246     9 
 3229  3230  3249  3247     9 
 3229  3230  3249  3250     9 
 3229  3230  3249  3251     9 
 3231  3230  3249  3247     9 
 3231  3230  3249  3250     9 
 3231  3230  3249  3251     9 
 3232  3230  3249  3247     9 
 3232  3230  3249  3250     9 
 3232  3230  3249  3251     9 
 3230  3232  3233  3234     9 
 3230  3232  3233  3235     9 
 3246  3232  3233  3234     9 
 3246  3232  3233  3235     9 
 3230  3232  3246  3236     9 
 3230  3232  3246  3245     9 
 3233  3232  3246  3236     9 
 3233  3232  3246  3245     9 
 3232  3233  3235  3236     9 
 3234  3233  3235  3236     9 
 3233  3235  3236  3237     9 
 3233  3235  3236  3246     9 
 3235  3236  3237  3238     9 
 3235  3236  3237  3239     9 
 3246  3236  3237  3238     9 
 3246  3236  3237  3239     9 
 3235  3236  3246  3232     9 
 3235  3236  3246  3245     9 
 3237  3236  3246  3232     9 
 3237  3236  3246  3245     9 
 3236  3237  3239  3240     9 
 3236  3237  3239  3241     9 
 3238  3237  3239  3240     9 
 3238  3237  3239  3241     9 
 3237  3239  3241  3242     9 
 3237  3239  3241  3245     9 
 3240  3239  3241  3242     9 
 3240  3239  3241  3245     9 
 3239  3241  3242  3243     9 
 3239  3241  3242  3244     9 
 3245  3241  3242  3243     9 
 3245  3241  3242  3244     9 
 3239  3241  3245  3246     9 
 3242  3241  3245  3246     9 
 3241  3245  3246  3232     9 
 3241  3245  3246  3236     9 
 3227  3247  3249  3230     9 
 3227  3247  3249  3250     9 
 3227  3247  3249  3251     9 
 3248  3247  3249  3230     9 
 3248  3247  3249  3250     9 
 3248  3247  3249  3251     9 
 3252  3247  3249  3230     9 
 3252  3247  3249  3250     9 
 3252  3247  3249  3251     9 
 3227  3247  3252  3253     9 
 3248  3247  3252  3253     9 
 3249  3247  3252  3253     9 
 3247  3252  3253  3254     9 
 3247  3252  3253  3255     9 
 3247  3252  3253  3256     9 
 3252  3253  3256  3257     9 
 3254  3253  3256  3257     9 
 3255  3253  3256  3257     9 
 3253  3256  3257  3258     9 
 3253  3256  3257  3259     9 
 3253  3256  3257  3260     9 
 3256  3257  3260  3261     9 
 3256  3257  3260  3262     9 
 3256  3257  3260  3277     9 
 3258  3257  3260  3261     9 
 3258  3257  3260  3262     9 
 3258  3257  3260  3277     9 
 3259  3257  3260  3261     9 
 3259  3257  3260  3262     9 
 3259  3257  3260  3277     9 
 3257  3260  3262  3263     9 
 3261  3260  3262  3263     9 
 3277  3260  3262  3263     9 
 3257  3260  3277  3278     9 
 3257  3260  3277  3279     9 
 3257  3260  3277  3282     9 
 3261  3260  3277  3278     9 
 3261  3260  3277  3279     9 
 3261  3260  3277  3282     9 
 3262  3260  3277  3278     9 
 3262  3260  3277  3279     9 
 3262  3260  3277  3282     9 
 3260  3262  3263  3264     9 
 3260  3262  3263  3265     9 
 3260  3262  3263  3279     9 
 3262  3263  3265  3266     9 
 3262  3263  3265  3275     9 
 3264  3263  3265  3266     9 
 3264  3263  3265  3275     9 
 3279  3263  3265  3266     9 
 3279  3263  3265  3275     9 
 3262  3263  3279  3277     9 
 3262  3263  3279  3280     9 
 3262  3263  3279  3281     9 
 3264  3263  3279  3277     9 
 3264  3263  3279  3280     9 
 3264  3263  3279  3281     9 
 3265  3263  3279  3277     9 
 3265  3263  3279  3280     9 
 3265  3263  3279  3281     9 
 3263  3265  3266  3267     9 
 3263  3265  3266  3268     9 
 3275  3265  3266  3267     9 
 3275  3265  3266  3268     9 
 3263  3265  3275  3274     9 
 3263  3265  3275  3276     9 
 3266  3265  3275  3274     9 
 3266  3265  3275  3276     9 
 3265  3266  3268  3269     9 
 3265  3266  3268  3270     9 
 3267  3266  3268  3269     9 
 3267  3266  3268  3270     9 
 3266  3268  3270  3271     9 
 3266  3268  3270  3274     9 
 3269  3268  3270  3271     9 
 3269  3268  3270  3274     9 
 3268  3270  3271  3272     9 
 3268  3270  3271  3273     9 
 3274  3270  3271  3272     9 
 3274  3270  3271  3273     9 
 3268  3270  3274  3275     9 
 3271  3270  3274  3275     9 
 3270  3274  3275  3265     9 
 3270  3274  3275  3276     9 
 3260  3277  3279  3263     9 
 3260  3277  3279  3280     9 
 3260  3277  3279  3281     9 
 3278  3277  3279  3263     9 
 3278  3277  3279  3280     9 
 3278  3277  3279  3281     9 
 3282  3277  3279  3263     9 
 3282  3277  3279  3280     9 
 3282  3277  3279  3281     9 
 3260  3277  3282  3283     9 
 3278  3277  3282  3283     9 
 3279  3277  3282  3283     9 
 3277  3282  3283  3284     9 
 3277  3282  3283  3285     9 
 3277  3282  3283  3286     9 
 3282  3283  3286  3287     9 
 3284  3283  3286  3287     9 
 3285  3283  3286  3287     9 
 3283  3286  3287  3288     9 
 3283  3286  3287  3289     9 
 3283  3286  3287  3290     9 
 3286  3287  3290  3291     9 
 3286  3287  3290  3292     9 
 3286  3287  3290  3307     9 
 3288  3287  3290  3291     9 
 3288  3287  3290  3292     9 
 3288  3287  3290  3307     9 
 3289  3287  3290  3291     9 
 3289  3287  3290  3292     9 
 3289  3287  3290  3307     9 
 3287  3290  3292  3293     9 
 3291  3290  3292  3293     9 
 3307  3290  3292  3293     9 
 3287  3290  3307  3308     9 
 3287  3290  3307  3309     9 
 3287  3290  3307  3312     9 
 3291  3290  3307  3308     9 
 3291  3290  3307  3309     9 
 3291  3290  3307  3312     9 
 3292  3290  3307  3308     9 
 3292  3290  3307  3309     9 
 3292  3290  3307  3312     9 
 3290  3292  3293  3294     9 
 3290  3292  3293  3295     9 
 3290  3292  3293  3309     9 
 3292  3293  3295  3296     9 
 3292  3293  3295  3305     9 
 3294  3293  3295  3296     9 
 3294  3293  3295  3305     9 
 3309  3293  3295  3296     9 
 3309  3293  3295  3305     9 
 3292  3293  3309  3307     9 
 3292  3293  3309  3310     9 
 3292  3293  3309  3311     9 
 3294  3293  3309  3307     9 
 3294  3293  3309  3310     9 
 3294  3293  3309  3311     9 
 3295  3293  3309  3307     9 
 3295  3293  3309  3310     9 
 3295  3293  3309  3311     9 
 3293  3295  3296  3297     9 
 3293  3295  3296  3298     9 
 3305  3295  3296  3297     9 
 3305  3295  3296  3298     9 
 3293  3295  3305  3304     9 
 3293  3295  3305  3306     9 
 3296  3295  3305  3304     9 
 3296  3295  3305  3306     9 
 3295  3296  3298  3299     9 
 3295  3296  3298  3300     9 
 3297  3296  3298  3299     9 
 3297  3296  3298  3300     9 
 3296  3298  3300  3301     9 
 3296  3298  3300  3304     9 
 3299  3298  3300  3301     9 
 3299  3298  3300  3304     9 
 3298  3300  3301  3302     9 
 3298  3300  3301  3303     9 
 3304  3300  3301  3302     9 
 3304  3300  3301  3303     9 
 3298  3300  3304  3305     9 
 3301  3300  3304  3305     9 
 3300  3304  3305  3295     9 
 3300  3304  3305  3306     9 
 3290  3307  3309  3293     9 
 3290  3307  3309  3310     9 
 3290  3307  3309  3311     9 
 3308  3307  3309  3293     9 
 3308  3307  3309  3310     9 
 3308  3307  3309  3311     9 
 3312  3307  3309  3293     9 
 3312  3307  3309  3310     9 
 3312  3307  3309  3311     9 
 3290  3307  3312  3313     9 
 3308  3307  3312  3313     9 
 3309  3307  3312  3313     9 
 3307  3312  3313  3314     9 
 3307  3312  3313  3315     9 
 3307  3312  3313  3316     9 
 3312  3313  3316  3317     9 
 3314  3313  3316  3317     9 
 3315  3313  3316  3317     9 
 3313  3316  3317  3318     9 
 3313  3316  3317  3319     9 
 3313  3316  3317  3320     9 
 3316  3317  3320  3321     9 
 3316  3317  3320  3322     9 
 3316  3317  3320  3339     9 
 3318  3317  3320  3321     9 
 3318  3317  3320  3322     9 
 3318  3317  3320  3339     9 
 3319  3317  3320  3321     9 
 3319  3317  3320  3322     9 
 3319  3317  3320  3339     9 
 3317  3320  3322  3323     9 
 3321  3320  3322  3323     9 
 3339  3320  3322  3323     9 
 3317  3320  3339  3340     9 
 3317  3320  3339  3341     9 
 3317  3320  3339  3344     9 
 3321  3320  3339  3340     9 
 3321  3320  3339  3341     9 
 3321  3320  3339  3344     9 
 3322  3320  3339  3340     9 
 3322  3320  3339  3341     9 
 3322  3320  3339  3344     9 
 3320  3322  3323  3324     9 
 3320  3322  3323  3325     9 
 3320  3322  3323  3341     9 
 3322  3323  3325  3326     9 
 3322  3323  3325  3337     9 
 3324  3323  3325  3326     9 
 3324  3323  3325  3337     9 
 3341  3323  3325  3326     9 
 3341  3323  3325  3337     9 
 3322  3323  3341  3339     9 
 3322  3323  3341  3342     9 
 3322  3323  3341  3343     9 
 3324  3323  3341  3339     9 
 3324  3323  3341  3342     9 
 3324  3323  3341  3343     9 
 3325  3323  3341  3339     9 
 3325  3323  3341  3342     9 
 3325  3323  3341  3343     9 
 3323  3325  3326  3327     9 
 3323  3325  3326  3328     9 
 3337  3325  3326  3327     9 
 3337  3325  3326  3328     9 
 3323  3325  3337  3335     9 
 3323  3325  3337  3338     9 
 3326  3325  3337  3335     9 
 3326  3325  3337  3338     9 
 3325  3326  3328  3329     9 
 3325  3326  3328  3333     9 
 3327  3326  3328  3329     9 
 3327  3326  3328  3333     9 
 3326  3328  3329  3330     9 
 3326  3328  3329  3331     9 
 3326  3328  3329  3332     9 
 3333  3328  3329  3330     9 
 3333  3328  3329  3331     9 
 3333  3328  3329  3332     9 
 3326  3328  3333  3334     9 
 3326  3328  3333  3335     9 
 3329  3328  3333  3334     9 
 3329  3328  3333  3335     9 
 3328  3333  3335  3336     9 
 3328  3333  3335  3337     9 
 3334  3333  3335  3336     9 
 3334  3333  3335  3337     9 
 3333  3335  3337  3325     9 
 3333  3335  3337  3338     9 
 3336  3335  3337  3325     9 
 3336  3335  3337  3338     9 
 3320  3339  3341  3323     9 
 3320  3339  3341  3342     9 
 3320  3339  3341  3343     9 
 3340  3339  3341  3323     9 
 3340  3339  3341  3342     9 
 3340  3339  3341  3343     9 
 3344  3339  3341  3323     9 
 3344  3339  3341  3342     9 
 3344  3339  3341  3343     9 
 3320  3339  3344  3345     9 
 3340  3339  3344  3345     9 
 3341  3339  3344  3345     9 
 3339  3344  3345  3346     9 
 3339  3344  3345  3347     9 
 3339  3344  3345  3348     9 
 3344  3345  3348  3349     9 
 3346  3345  3348  3349     9 
 3347  3345  3348  3349     9 
 3345  3348  3349  3350     9 
 3345  3348  3349  3351     9 
 3345  3348  3349  3352     9 
 3348  3349  3352  3353     9 
 3348  3349  3352  3354     9 
 3348  3349  3352  3372     9 
 3350  3349  3352  3353     9 
 3350  3349  3352  3354     9 
 3350  3349  3352  3372     9 
 3351  3349  3352  3353     9 
 3351  3349  3352  3354     9 
 3351  3349  3352  3372     9 
 3349  3352  3354  3355     9 
 3353  3352  3354  3355     9 
 3372  3352  3354  3355     9 
 3349  3352  3372  3373     9 
 3349  3352  3372  3374     9 
 3349  3352  3372  3377     9 
 3353  3352  3372  3373     9 
 3353  3352  3372  3374     9 
 3353  3352  3372  3377     9 
 3354  3352  3372  3373     9 
 3354  3352  3372  3374     9 
 3354  3352  3372  3377     9 
 3352  3354  3355  3356     9 
 3352  3354  3355  3357     9 
 3352  3354  3355  3374     9 
 3354  3355  3357  3358     9 
 3354  3355  3357  3371     9 
 3356  3355  3357  3358     9 
 3356  3355  3357  3371     9 
 3374  3355  3357  3358     9 
 3374  3355  3357  3371     9 
 3354  3355  3374  3372     9 
 3354  3355  3374  3375     9 
 3354  3355  3374  3376     9 
 3356  3355  3374  3372     9 
 3356  3355  3374  3375     9 
 3356  3355  3374  3376     9 
 3357  3355  3374  3372     9 
 3357  3355  3374  3375     9 
 3357  3355  3374  3376     9 
 3355  3357  3358  3359     9 
 3355  3357  3358  3360     9 
 3371  3357  3358  3359     9 
 3371  3357  3358  3360     9 
 3355  3357  3371  3361     9 
 3355  3357  3371  3370     9 
 3358  3357  3371  3361     9 
 3358  3357  3371  3370     9 
 3357  3358  3360  3361     9 
 3359  3358  3360  3361     9 
 3358  3360  3361  3362     9 
 3358  3360  3361  3371     9 
 3360  3361  3362  3363     9 
 3360  3361  3362  3364     9 
 3371  3361  3362  3363     9 
 3371  3361  3362  3364     9 
 3360  3361  3371  3357     9 
 3360  3361  3371  3370     9 
 3362  3361  3371  3357     9 
 3362  3361  3371  3370     9 
 3361  3362  3364  3365     9 
 3361  3362  3364  3366     9 
 3363  3362  3364  3365     9 
 3363  3362  3364  3366     9 
 3362  3364  3366  3367     9 
 3362  3364  3366  3370     9 
 3365  3364  3366  3367     9 
 3365  3364  3366  3370     9 
 3364  3366  3367  3368     9 
 3364  3366  3367  3369     9 
 3370  3366  3367  3368     9 
 3370  3366  3367  3369     9 
 3364  3366  3370  3371     9 
 3367  3366  3370  3371     9 
 3366  3370  3371  3357     9 
 3366  3370  3371  3361     9 
 3352  3372  3374  3355     9 
 3352  3372  3374  3375     9 
 3352  3372  3374  3376     9 
 3373  3372  3374  3355     9 
 3373  3372  3374  3375     9 
 3373  3372  3374  3376     9 
 3377  3372  3374  3355     9 
 3377  3372  3374  3375     9 
 3377  3372  3374  3376     9 
 3352  3372  3377  3378     9 
 3373  3372  3377  3378     9 
 3374  3372  3377  3378     9 
 3372  3377  3378  3379     9 
 3372  3377  3378  3380     9 
 3372  3377  3378  3381     9 
 3377  3378  3381  3382     9 
 3379  3378  3381  3382     9 
 3380  3378  3381  3382     9 
 3378  3381  3382  3383     9 
 3378  3381  3382  3384     9 
 3378  3381  3382  3385     9 
 3381  3382  3385  3386     9 
 3381  3382  3385  3387     9 
 3381  3382  3385  3402     9 
 3383  3382  3385  3386     9 
 3383  3382  3385  3387     9 
 3383  3382  3385  3402     9 
 3384  3382  3385  3386     9 
 3384  3382  3385  3387     9 
 3384  3382  3385  3402     9 
 3382  3385  3387  3388     9 
 3386  3385  3387  3388     9 
 3402  3385  3387  3388     9 
 3382  3385  3402  3403     9 
 3382  3385  3402  3404     9 
 3382  3385  3402  3407     9 
 3386  3385  3402  3403     9 
 3386  3385  3402  3404     9 
 3386  3385  3402  3407     9 
 3387  3385  3402  3403     9 
 3387  3385  3402  3404     9 
 3387  3385  3402  3407     9 
 3385  3387  3388  3389     9 
 3385  3387  3388  3390     9 
 3385  3387  3388  3404     9 
 3387  3388  3390  3391     9 
 3387  3388  3390  3400     9 
 3389  3388  3390  3391     9 
 3389  3388  3390  3400     9 
 3404  3388  3390  3391     9 
 3404  3388  3390  3400     9 
 3387  3388  3404  3402     9 
 3387  3388  3404  3405     9 
 3387  3388  3404  3406     9 
 3389  3388  3404  3402     9 
 3389  3388  3404  3405     9 
 3389  3388  3404  3406     9 
 3390  3388  3404  3402     9 
 3390  3388  3404  3405     9 
 3390  3388  3404  3406     9 
 3388  3390  3391  3392     9 
 3388  3390  3391  3393     9 
 3400  3390  3391  3392     9 
 3400  3390  3391  3393     9 
 3388  3390  3400  3399     9 
 3388  3390  3400  3401     9 
 3391  3390  3400  3399     9 
 3391  3390  3400  3401     9 
 3390  3391  3393  3394     9 
 3390  3391  3393  3395     9 
 3392  3391  3393  3394     9 
 3392  3391  3393  3395     9 
 3391  3393  3395  3396     9 
 3391  3393  3395  3399     9 
 3394  3393  3395  3396     9 
 3394  3393  3395  3399     9 
 3393  3395  3396  3397     9 
 3393  3395  3396  3398     9 
 3399  3395  3396  3397     9 
 3399  3395  3396  3398     9 
 3393  3395  3399  3400     9 
 3396  3395  3399  3400     9 
 3395  3399  3400  3390     9 
 3395  3399  3400  3401     9 
 3385  3402  3404  3388     9 
 3385  3402  3404  3405     9 
 3385  3402  3404  3406     9 
 3403  3402  3404  3388     9 
 3403  3402  3404  3405     9 
 3403  3402  3404  3406     9 
 3407  3402  3404  3388     9 
 3407  3402  3404  3405     9 
 3407  3402  3404  3406     9 
 3385  3402  3407  3408     9 
 3403  3402  3407  3408     9 
 3404  3402  3407  3408     9 
 3402  3407  3408  3409     9 
 3402  3407  3408  3410     9 
 3402  3407  3408  3411     9 
 3407  3408  3411  3412     9 
 3409  3408  3411  3412     9 
 3410  3408  3411  3412     9 
 3408  3411  3412  3413     9 
 3408  3411  3412  3414     9 
 3408  3411  3412  3415     9 
 3411  3412  3415  3416     9 
 3411  3412  3415  3417     9 
 3411  3412  3415  3435     9 
 3413  3412  3415  3416     9 
 3413  3412  3415  3417     9 
 3413  3412  3415  3435     9 
 3414  3412  3415  3416     9 
 3414  3412  3415  3417     9 
 3414  3412  3415  3435     9 
 3412  3415  3417  3418     9 
 3416  3415  3417  3418     9 
 3435  3415  3417  3418     9 
 3412  3415  3435  3436     9 
 3412  3415  3435  3437     9 
 3412  3415  3435  3440     9 
 3416  3415  3435  3436     9 
 3416  3415  3435  3437     9 
 3416  3415  3435  3440     9 
 3417  3415  3435  3436     9 
 3417  3415  3435  3437     9 
 3417  3415  3435  3440     9 
 3415  3417  3418  3419     9 
 3415  3417  3418  3420     9 
 3415  3417  3418  3437     9 
 3417  3418  3420  3421     9 
 3417  3418  3420  3434     9 
 3419  3418  3420  3421     9 
 3419  3418  3420  3434     9 
 3437  3418  3420  3421     9 
 3437  3418  3420  3434     9 
 3417  3418  3437  3435     9 
 3417  3418  3437  3438     9 
 3417  3418  3437  3439     9 
 3419  3418  3437  3435     9 
 3419  3418  3437  3438     9 
 3419  3418  3437  3439     9 
 3420  3418  3437  3435     9 
 3420  3418  3437  3438     9 
 3420  3418  3437  3439     9 
 3418  3420  3421  3422     9 
 3418  3420  3421  3423     9 
 3434  3420  3421  3422     9 
 3434  3420  3421  3423     9 
 3418  3420  3434  3424     9 
 3418  3420  3434  3433     9 
 3421  3420  3434  3424     9 
 3421  3420  3434  3433     9 
 3420  3421  3423  3424     9 
 3422  3421  3423  3424     9 
 3421  3423  3424  3425     9 
 3421  3423  3424  3434     9 
 3423  3424  3425  3426     9 
 3423  3424  3425  3427     9 
 3434  3424  3425  3426     9 
 3434  3424  3425  3427     9 
 3423  3424  3434  3420     9 
 3423  3424  3434  3433     9 
 3425  3424  3434  3420     9 
 3425  3424  3434  3433     9 
 3424  3425  3427  3428     9 
 3424  3425  3427  3429     9 
 3426  3425  3427  3428     9 
 3426  3425  3427  3429     9 
 3425  3427  3429  3430     9 
 3425  3427  3429  3433     9 
 3428  3427  3429  3430     9 
 3428  3427  3429  3433     9 
 3427  3429  3430  3431     9 
 3427  3429  3430  3432     9 
 3433  3429  3430  3431     9 
 3433  3429  3430  3432     9 
 3427  3429  3433  3434     9 
 3430  3429  3433  3434     9 
 3429  3433  3434  3420     9 
 3429  3433  3434  3424     9 
 3415  3435  3437  3418     9 
 3415  3435  3437  3438     9 
 3415  3435  3437  3439     9 
 3436  3435  3437  3418     9 
 3436  3435  3437  3438     9 
 3436  3435  3437  3439     9 
 3440  3435  3437  3418     9 
 3440  3435  3437  3438     9 
 3440  3435  3437  3439     9 
 3415  3435  3440  3441     9 
 3436  3435  3440  3441     9 
 3437  3435  3440  3441     9 
 3435  3440  3441  3442     9 
 3435  3440  3441  3443     9 
 3435  3440  3441  3444     9 
 3440  3441  3444  3445     9 
 3442  3441  3444  3445     9 
 3443  3441  3444  3445     9 
 3441  3444  3445  3446     9 
 3441  3444  3445  3447     9 
 3441  3444  3445  3448     9 
 3444  3445  3448  3449     9 
 3444  3445  3448  3450     9 
 3444  3445  3448  3465     9 
 3446  3445  3448  3449     9 
 3446  3445  3448  3450     9 
 3446  3445  3448  3465     9 
 3447  3445  3448  3449     9 
 3447  3445  3448  3450     9 
 3447  3445  3448  3465     9 
 3445  3448  3450  3451     9 
 3449  3448  3450  3451     9 
 3465  3448  3450  3451     9 
 3445  3448  3465  3466     9 
 3445  3448  3465  3467     9 
 3445  3448  3465  3470     9 
 3449  3448  3465  3466     9 
 3449  3448  3465  3467     9 
 3449  3448  3465  3470     9 
 3450  3448  3465  3466     9 
 3450  3448  3465  3467     9 
 3450  3448  3465  3470     9 
 3448  3450  3451  3452     9 
 3448  3450  3451  3453     9 
 3448  3450  3451  3467     9 
 3450  3451  3453  3454     9 
 3450  3451  3453  3463     9 
 3452  3451  3453  3454     9 
 3452  3451  3453  3463     9 
 3467  3451  3453  3454     9 
 3467  3451  3453  3463     9 
 3450  3451  3467  3465     9 
 3450  3451  3467  3468     9 
 3450  3451  3467  3469     9 
 3452  3451  3467  3465     9 
 3452  3451  3467  3468     9 
 3452  3451  3467  3469     9 
 3453  3451  3467  3465     9 
 3453  3451  3467  3468     9 
 3453  3451  3467  3469     9 
 3451  3453  3454  3455     9 
 3451  3453  3454  3456     9 
 3463  3453  3454  3455     9 
 3463  3453  3454  3456     9 
 3451  3453  3463  3462     9 
 3451  3453  3463  3464     9 
 3454  3453  3463  3462     9 
 3454  3453  3463  3464     9 
 3453  3454  3456  3457     9 
 3453  3454  3456  3458     9 
 3455  3454  3456  3457     9 
 3455  3454  3456  3458     9 
 3454  3456  3458  3459     9 
 3454  3456  3458  3462     9 
 3457  3456  3458  3459     9 
 3457  3456  3458  3462     9 
 3456  3458  3459  3460     9 
 3456  3458  3459  3461     9 
 3462  3458  3459  3460     9 
 3462  3458  3459  3461     9 
 3456  3458  3462  3463     9 
 3459  3458  3462  3463     9 
 3458  3462  3463  3453     9 
 3458  3462  3463  3464     9 
 3448  3465  3467  3451     9 
 3448  3465  3467  3468     9 
 3448  3465  3467  3469     9 
 3466  3465  3467  3451     9 
 3466  3465  3467  3468     9 
 3466  3465  3467  3469     9 
 3470  3465  3467  3451     9 
 3470  3465  3467  3468     9 
 3470  3465  3467  3469     9 
 3448  3465  3470  3471     9 
 3466  3465  3470  3471     9 
 3467  3465  3470  3471     9 
 3465  3470  3471  3472     9 
 3465  3470  3471  3473     9 
 3465  3470  3471  3474     9 
 3470  3471  3474  3475     9 
 3472  3471  3474  3475     9 
 3473  3471  3474  3475     9 
 3471  3474  3475  3476     9 
 3471  3474  3475  3477     9 
 3471  3474  3475  3478     9 
 3474  3475  3478  3479     9 
 3474  3475  3478  3480     9 
 3474  3475  3478  3495     9 
 3476  3475  3478  3479     9 
 3476  3475  3478  3480     9 
 3476  3475  3478  3495     9 
 3477  3475  3478  3479     9 
 3477  3475  3478  3480     9 
 3477  3475  3478  3495     9 
 3475  3478  3480  3481     9 
 3479  3478  3480  3481     9 
 3495  3478  3480  3481     9 
 3475  3478  3495  3496     9 
 3475  3478  3495  3497     9 
 3475  3478  3495  3500     9 
 3479  3478  3495  3496     9 
 3479  3478  3495  3497     9 
 3479  3478  3495  3500     9 
 3480  3478  3495  3496     9 
 3480  3478  3495  3497     9 
 3480  3478  3495  3500     9 
 3478  3480  3481  3482     9 
 3478  3480  3481  3483     9 
 3478  3480  3481  3497     9 
 3480  3481  3483  3484     9 
 3480  3481  3483  3493     9 
 3482  3481  3483  3484     9 
 3482  3481  3483  3493     9 
 3497  3481  3483  3484     9 
 3497  3481  3483  3493     9 
 3480  3481  3497  3495     9 
 3480  3481  3497  3498     9 
 3480  3481  3497  3499     9 
 3482  3481  3497  3495     9 
 3482  3481  3497  3498     9 
 3482  3481  3497  3499     9 
 3483  3481  3497  3495     9 
 3483  3481  3497  3498     9 
 3483  3481  3497  3499     9 
 3481  3483  3484  3485     9 
 3481  3483  3484  3486     9 
 3493  3483  3484  3485     9 
 3493  3483  3484  3486     9 
 3481  3483  3493  3492     9 
 3481  3483  3493  3494     9 
 3484  3483  3493  3492     9 
 3484  3483  3493  3494     9 
 3483  3484  3486  3487     9 
 3483  3484  3486  3488     9 
 3485  3484  3486  3487     9 
 3485  3484  3486  3488     9 
 3484  3486  3488  3489     9 
 3484  3486  3488  3492     9 
 3487  3486  3488  3489     9 
 3487  3486  3488  3492     9 
 3486  3488  3489  3490     9 
 3486  3488  3489  3491     9 
 3492  3488  3489  3490     9 
 3492  3488  3489  3491     9 
 3486  3488  3492  3493     9 
 3489  3488  3492  3493     9 
 3488  3492  3493  3483     9 
 3488  3492  3493  3494     9 
 3478  3495  3497  3481     9 
 3478  3495  3497  3498     9 
 3478  3495  3497  3499     9 
 3496  3495  3497  3481     9 
 3496  3495  3497  3498     9 
 3496  3495  3497  3499     9 
 3500  3495  3497  3481     9 
 3500  3495  3497  3498     9 
 3500  3495  3497  3499     9 
 3478  3495  3500  3501     9 
 3496  3495  3500  3501     9 
 3497  3495  3500  3501     9 
 3495  3500  3501  3502     9 
 3495  3500  3501  3503     9 
 3495  3500  3501  3504     9 
 3500  3501  3504  3505     9 
 3502  3501  3504  3505     9 
 3503  3501  3504  3505     9 
 3501  3504  3505  3506     9 
 3501  3504  3505  3507     9 
 3501  3504  3505  3508     9 
 3504  3505  3508  3509     9 
 3504  3505  3508  3510     9 
 3504  3505  3508  3528     9 
 3506  3505  3508  3509     9 
 3506  3505  3508  3510     9 
 3506  3505  3508  3528     9 
 3507  3505  3508  3509     9 
 3507  3505  3508  3510     9 
 3507  3505  3508  3528     9 
 3505  3508  3510  3511     9 
 3509  3508  3510  3511     9 
 3528  3508  3510  3511     9 
 3505  3508  3528  3529     9 
 3505  3508  3528  3530     9 
 3505  3508  3528  3533     9 
 3509  3508  3528  3529     9 
 3509  3508  3528  3530     9 
 3509  3508  3528  3533     9 
 3510  3508  3528  3529     9 
 3510  3508  3528  3530     9 
 3510  3508  3528  3533     9 
 3508  3510  3511  3512     9 
 3508  3510  3511  3513     9 
 3508  3510  3511  3530     9 
 3510  3511  3513  3514     9 
 3510  3511  3513  3527     9 
 3512  3511  3513  3514     9 
 3512  3511  3513  3527     9 
 3530  3511  3513  3514     9 
 3530  3511  3513  3527     9 
 3510  3511  3530  3528     9 
 3510  3511  3530  3531     9 
 3510  3511  3530  3532     9 
 3512  3511  3530  3528     9 
 3512  3511  3530  3531     9 
 3512  3511  3530  3532     9 
 3513  3511  3530  3528     9 
 3513  3511  3530  3531     9 
 3513  3511  3530  3532     9 
 3511  3513  3514  3515     9 
 3511  3513  3514  3516     9 
 3527  3513  3514  3515     9 
 3527  3513  3514  3516     9 
 3511  3513  3527  3517     9 
 3511  3513  3527  3526     9 
 3514  3513  3527  3517     9 
 3514  3513  3527  3526     9 
 3513  3514  3516  3517     9 
 3515  3514  3516  3517     9 
 3514  3516  3517  3518     9 
 3514  3516  3517  3527     9 
 3516  3517  3518  3519     9 
 3516  3517  3518  3520     9 
 3527  3517  3518  3519     9 
 3527  3517  3518  3520     9 
 3516  3517  3527  3513     9 
 3516  3517  3527  3526     9 
 3518  3517  3527  3513     9 
 3518  3517  3527  3526     9 
 3517  3518  3520  3521     9 
 3517  3518  3520  3522     9 
 3519  3518  3520  3521     9 
 3519  3518  3520  3522     9 
 3518  3520  3522  3523     9 
 3518  3520  3522  3526     9 
 3521  3520  3522  3523     9 
 3521  3520  3522  3526     9 
 3520  3522  3523  3524     9 
 3520  3522  3523  3525     9 
 3526  3522  3523  3524     9 
 3526  3522  3523  3525     9 
 3520  3522  3526  3527     9 
 3523  3522  3526  3527     9 
 3522  3526  3527  3513     9 
 3522  3526  3527  3517     9 
 3508  3528  3530  3511     9 
 3508  3528  3530  3531     9 
 3508  3528  3530  3532     9 
 3529  3528  3530  3511     9 
 3529  3528  3530  3531     9 
 3529  3528  3530  3532     9 
 3533  3528  3530  3511     9 
 3533  3528  3530  3531     9 
 3533  3528  3530  3532     9 
 3508  3528  3533  3534     9 
 3529  3528  3533  3534     9 
 3530  3528  3533  3534     9 
 3528  3533  3534  3535     9 
 3528  3533  3534  3536     9 
 3528  3533  3534  3537     9 
 3533  3534  3537  3538     9 
 3535  3534  3537  3538     9 
 3536  3534  3537  3538     9 
 3534  3537  3538  3539     9 
 3534  3537  3538  3540     9 
 3534  3537  3538  3541     9 
 3537  3538  3541  3542     9 
 3537  3538  3541  3543     9 
 3537  3538  3541  3558     9 
 3539  3538  3541  3542     9 
 3539  3538  3541  3543     9 
 3539  3538  3541  3558     9 
 3540  3538  3541  3542     9 
 3540  3538  3541  3543     9 
 3540  3538  3541  3558     9 
 3538  3541  3543  3544     9 
 3542  3541  3543  3544     9 
 3558  3541  3543  3544     9 
 3538  3541  3558  3559     9 
 3538  3541  3558  3560     9 
 3538  3541  3558  3563     9 
 3542  3541  3558  3559     9 
 3542  3541  3558  3560     9 
 3542  3541  3558  3563     9 
 3543  3541  3558  3559     9 
 3543  3541  3558  3560     9 
 3543  3541  3558  3563     9 
 3541  3543  3544  3545     9 
 3541  3543  3544  3546     9 
 3541  3543  3544  3560     9 
 3543  3544  3546  3547     9 
 3543  3544  3546  3556     9 
 3545  3544  3546  3547     9 
 3545  3544  3546  3556     9 
 3560  3544  3546  3547     9 
 3560  3544  3546  3556     9 
 3543  3544  3560  3558     9 
 3543  3544  3560  3561     9 
 3543  3544  3560  3562     9 
 3545  3544  3560  3558     9 
 3545  3544  3560  3561     9 
 3545  3544  3560  3562     9 
 3546  3544  3560  3558     9 
 3546  3544  3560  3561     9 
 3546  3544  3560  3562     9 
 3544  3546  3547  3548     9 
 3544  3546  3547  3549     9 
 3556  3546  3547  3548     9 
 3556  3546  3547  3549     9 
 3544  3546  3556  3555     9 
 3544  3546  3556  3557     9 
 3547  3546  3556  3555     9 
 3547  3546  3556  3557     9 
 3546  3547  3549  3550     9 
 3546  3547  3549  3551     9 
 3548  3547  3549  3550     9 
 3548  3547  3549  3551     9 
 3547  3549  3551  3552     9 
 3547  3549  3551  3555     9 
 3550  3549  3551  3552     9 
 3550  3549  3551  3555     9 
 3549  3551  3552  3553     9 
 3549  3551  3552  3554     9 
 3555  3551  3552  3553     9 
 3555  3551  3552  3554     9 
 3549  3551  3555  3556     9 
 3552  3551  3555  3556     9 
 3551  3555  3556  3546     9 
 3551  3555  3556  3557     9 
 3541  3558  3560  3544     9 
 3541  3558  3560  3561     9 
 3541  3558  3560  3562     9 
 3559  3558  3560  3544     9 
 3559  3558  3560  3561     9 
 3559  3558  3560  3562     9 
 3563  3558  3560  3544     9 
 3563  3558  3560  3561     9 
 3563  3558  3560  3562     9 
 3541  3558  3563  3564     9 
 3559  3558  3563  3564     9 
 3560  3558  3563  3564     9 
 3558  3563  3564  3565     9 
 3558  3563  3564  3566     9 
 3558  3563  3564  3567     9 
 3563  3564  3567  3568     9 
 3565  3564  3567  3568     9 
 3566  3564  3567  3568     9 
 3564  3567  3568  3569     9 
 3564  3567  3568  3570     9 
 3564  3567  3568  3571     9 
 3567  3568  3571  3572     9 
 3567  3568  3571  3573     9 
 3567  3568  3571  3591     9 
 3569  3568  3571  3572     9 
 3569  3568  3571  3573     9 
 3569  3568  3571  3591     9 
 3570  3568  3571  3572     9 
 3570  3568  3571  3573     9 
 3570  3568  3571  3591     9 
 3568  3571  3573  3574     9 
 3572  3571  3573  3574     9 
 3591  3571  3573  3574     9 
 3568  3571  3591  3592     9 
 3568  3571  3591  3593     9 
 3568  3571  3591  3596     9 
 3572  3571  3591  3592     9 
 3572  3571  3591  3593     9 
 3572  3571  3591  3596     9 
 3573  3571  3591  3592     9 
 3573  3571  3591  3593     9 
 3573  3571  3591  3596     9 
 3571  3573  3574  3575     9 
 3571  3573  3574  3576     9 
 3571  3573  3574  3593     9 
 3573  3574  3576  3577     9 
 3573  3574  3576  3590     9 
 3575  3574  3576  3577     9 
 3575  3574  3576  3590     9 
 3593  3574  3576  3577     9 
 3593  3574  3576  3590     9 
 3573  3574  3593  3591     9 
 3573  3574  3593  3594     9 
 3573  3574  3593  3595     9 
 3575  3574  3593  3591     9 
 3575  3574  3593  3594     9 
 3575  3574  3593  3595     9 
 3576  3574  3593  3591     9 
 3576  3574  3593  3594     9 
 3576  3574  3593  3595     9 
 3574  3576  3577  3578     9 
 3574  3576  3577  3579     9 
 3590  3576  3577  3578     9 
 3590  3576  3577  3579     9 
 3574  3576  3590  3580     9 
 3574  3576  3590  3589     9 
 3577  3576  3590  3580     9 
 3577  3576  3590  3589     9 
 3576  3577  3579  3580     9 
 3578  3577  3579  3580     9 
 3577  3579  3580  3581     9 
 3577  3579  3580  3590     9 
 3579  3580  3581  3582     9 
 3579  3580  3581  3583     9 
 3590  3580  3581  3582     9 
 3590  3580  3581  3583     9 
 3579  3580  3590  3576     9 
 3579  3580  3590  3589     9 
 3581  3580  3590  3576     9 
 3581  3580  3590  3589     9 
 3580  3581  3583  3584     9 
 3580  3581  3583  3585     9 
 3582  3581  3583  3584     9 
 3582  3581  3583  3585     9 
 3581  3583  3585  3586     9 
 3581  3583  3585  3589     9 
 3584  3583  3585  3586     9 
 3584  3583  3585  3589     9 
 3583  3585  3586  3587     9 
 3583  3585  3586  3588     9 
 3589  3585  3586  3587     9 
 3589  3585  3586  3588     9 
 3583  3585  3589  3590     9 
 3586  3585  3589  3590     9 
 3585  3589  3590  3576     9 
 3585  3589  3590  3580     9 
 3571  3591  3593  3574     9 
 3571  3591  3593  3594     9 
 3571  3591  3593  3595     9 
 3592  3591  3593  3574     9 
 3592  3591  3593  3594     9 
 3592  3591  3593  3595     9 
 3596  3591  3593  3574     9 
 3596  3591  3593  3594     9 
 3596  3591  3593  3595     9 
 3571  3591  3596  3597     9 
 3592  3591  3596  3597     9 
 3593  3591  3596  3597     9 
 3591  3596  3597  3598     9 
 3591  3596  3597  3599     9 
 3591  3596  3597  3600     9 
 3596  3597  3600  3601     9 
 3598  3597  3600  3601     9 
 3599  3597  3600  3601     9 
 3597  3600  3601  3602     9 
 3597  3600  3601  3603     9 
 3597  3600  3601  3604     9 
 3600  3601  3604  3605     9 
 3600  3601  3604  3606     9 
 3600  3601  3604  3621     9 
 3602  3601  3604  3605     9 
 3602  3601  3604  3606     9 
 3602  3601  3604  3621     9 
 3603  3601  3604  3605     9 
 3603  3601  3604  3606     9 
 3603  3601  3604  3621     9 
 3601  3604  3606  3607     9 
 3605  3604  3606  3607     9 
 3621  3604  3606  3607     9 
 3601  3604  3621  3622     9 
 3601  3604  3621  3623     9 
 3601  3604  3621  3626     9 
 3605  3604  3621  3622     9 
 3605  3604  3621  3623     9 
 3605  3604  3621  3626     9 
 3606  3604  3621  3622     9 
 3606  3604  3621  3623     9 
 3606  3604  3621  3626     9 
 3604  3606  3607  3608     9 
 3604  3606  3607  3609     9 
 3604  3606  3607  3623     9 
 3606  3607  3609  3610     9 
 3606  3607  3609  3619     9 
 3608  3607  3609  3610     9 
 3608  3607  3609  3619     9 
 3623  3607  3609  3610     9 
 3623  3607  3609  3619     9 
 3606  3607  3623  3621     9 
 3606  3607  3623  3624     9 
 3606  3607  3623  3625     9 
 3608  3607  3623  3621     9 
 3608  3607  3623  3624     9 
 3608  3607  3623  3625     9 
 3609  3607  3623  3621     9 
 3609  3607  3623  3624     9 
 3609  3607  3623  3625     9 
 3607  3609  3610  3611     9 
 3607  3609  3610  3612     9 
 3619  3609  3610  3611     9 
 3619  3609  3610  3612     9 
 3607  3609  3619  3618     9 
 3607  3609  3619  3620     9 
 3610  3609  3619  3618     9 
 3610  3609  3619  3620     9 
 3609  3610  3612  3613     9 
 3609  3610  3612  3614     9 
 3611  3610  3612  3613     9 
 3611  3610  3612  3614     9 
 3610  3612  3614  3615     9 
 3610  3612  3614  3618     9 
 3613  3612  3614  3615     9 
 3613  3612  3614  3618     9 
 3612  3614  3615  3616     9 
 3612  3614  3615  3617     9 
 3618  3614  3615  3616     9 
 3618  3614  3615  3617     9 
 3612  3614  3618  3619     9 
 3615  3614  3618  3619     9 
 3614  3618  3619  3609     9 
 3614  3618  3619  3620     9 
 3604  3621  3623  3607     9 
 3604  3621  3623  3624     9 
 3604  3621  3623  3625     9 
 3622  3621  3623  3607     9 
 3622  3621  3623  3624     9 
 3622  3621  3623  3625     9 
 3626  3621  3623  3607     9 
 3626  3621  3623  3624     9 
 3626  3621  3623  3625     9 
 3604  3621  3626  3627     9 
 3622  3621  3626  3627     9 
 3623  3621  3626  3627     9 
 3621  3626  3627  3628     9 
 3621  3626  3627  3629     9 
 3621  3626  3627  3630     9 
 3626  3627  3630  3631     9 
 3628  3627  3630  3631     9 
 3629  3627  3630  3631     9 
 3627  3630  3631  3632     9 
 3627  3630  3631  3633     9 
 3627  3630  3631  3634     9 
 3630  3631  3634  3635     9 
 3630  3631  3634  3636     9 
 3630  3631  3634  3653     9 
 3632  3631  3634  3635     9 
 3632  3631  3634  3636     9 
 3632  3631  3634  3653     9 
 3633  3631  3634  3635     9 
 3633  3631  3634  3636     9 
 3633  3631  3634  3653     9 
 3631  3634  3636  3637     9 
 3635  3634  3636  3637     9 
 3653  3634  3636  3637     9 
 3631  3634  3653  3654     9 
 3631  3634  3653  3655     9 
 3631  3634  3653  3658     9 
 3635  3634  3653  3654     9 
 3635  3634  3653  3655     9 
 3635  3634  3653  3658     9 
 3636  3634  3653  3654     9 
 3636  3634  3653  3655     9 
 3636  3634  3653  3658     9 
 3634  3636  3637  3638     9 
 3634  3636  3637  3639     9 
 3634  3636  3637  3655     9 
 3636  3637  3639  3640     9 
 3636  3637  3639  3651     9 
 3638  3637  3639  3640     9 
 3638  3637  3639  3651     9 
 3655  3637  3639  3640     9 
 3655  3637  3639  3651     9 
 3636  3637  3655  3653     9 
 3636  3637  3655  3656     9 
 3636  3637  3655  3657     9 
 3638  3637  3655  3653     9 
 3638  3637  3655  3656     9 
 3638  3637  3655  3657     9 
 3639  3637  3655  3653     9 
 3639  3637  3655  3656     9 
 3639  3637  3655  3657     9 
 3637  3639  3640  3641     9 
 3637  3639  3640  3642     9 
 3651  3639  3640  3641     9 
 3651  3639  3640  3642     9 
 3637  3639  3651  3649     9 
 3637  3639  3651  3652     9 
 3640  3639  3651  3649     9 
 3640  3639  3651  3652     9 
 3639  3640  3642  3643     9 
 3639  3640  3642  3647     9 
 3641  3640  3642  3643     9 
 3641  3640  3642  3647     9 
 3640  3642  3643  3644     9 
 3640  3642  3643  3645     9 
 3640  3642  3643  3646     9 
 3647  3642  3643  3644     9 
 3647  3642  3643  3645     9 
 3647  3642  3643  3646     9 
 3640  3642  3647  3648     9 
 3640  3642  3647  3649     9 
 3643  3642  3647  3648     9 
 3643  3642  3647  3649     9 
 3642  3647  3649  3650     9 
 3642  3647  3649  3651     9 
 3648  3647  3649  3650     9 
 3648  3647  3649  3651     9 
 3647  3649  3651  3639     9 
 3647  3649  3651  3652     9 
 3650  3649  3651  3639     9 
 3650  3649  3651  3652     9 
 3634  3653  3655  3637     9 
 3634  3653  3655  3656     9 
 3634  3653  3655  3657     9 
 3654  3653  3655  3637     9 
 3654  3653  3655  3656     9 
 3654  3653  3655  3657     9 
 3658  3653  3655  3637     9 
 3658  3653  3655  3656     9 
 3658  3653  3655  3657     9 
 3634  3653  3658  3659     9 
 3654  3653  3658  3659     9 
 3655  3653  3658  3659     9 
 3653  3658  3659  3660     9 
 3653  3658  3659  3661     9 
 3653  3658  3659  3662     9 
 3658  3659  3662  3663     9 
 3660  3659  3662  3663     9 
 3661  3659  3662  3663     9 
 3659  3662  3663  3664     9 
 3659  3662  3663  3665     9 
 3659  3662  3663  3666     9 
 3662  3663  3666  3667     9 
 3662  3663  3666  3668     9 
 3662  3663  3666  3683     9 
 3664  3663  3666  3667     9 
 3664  3663  3666  3668     9 
 3664  3663  3666  3683     9 
 3665  3663  3666  3667     9 
 3665  3663  3666  3668     9 
 3665  3663  3666  3683     9 
 3663  3666  3668  3669     9 
 3667  3666  3668  3669     9 
 3683  3666  3668  3669     9 
 3663  3666  3683  3684     9 
 3663  3666  3683  3685     9 
 3663  3666  3683  3688     9 
 3667  3666  3683  3684     9 
 3667  3666  3683  3685     9 
 3667  3666  3683  3688     9 
 3668  3666  3683  3684     9 
 3668  3666  3683  3685     9 
 3668  3666  3683  3688     9 
 3666  3668  3669  3670     9 
 3666  3668  3669  3671     9 
 3666  3668  3669  3685     9 
 3668  3669  3671  3672     9 
 3668  3669  3671  3681     9 
 3670  3669  3671  3672     9 
 3670  3669  3671  3681     9 
 3685  3669  3671  3672     9 
 3685  3669  3671  3681     9 
 3668  3669  3685  3683     9 
 3668  3669  3685  3686     9 
 3668  3669  3685  3687     9 
 3670  3669  3685  3683     9 
 3670  3669  3685  3686     9 
 3670  3669  3685  3687     9 
 3671  3669  3685  3683     9 
 3671  3669  3685  3686     9 
 3671  3669  3685  3687     9 
 3669  3671  3672  3673     9 
 3669  3671  3672  3674     9 
 3681  3671  3672  3673     9 
 3681  3671  3672  3674     9 
 3669  3671  3681  3680     9 
 3669  3671  3681  3682     9 
 3672  3671  3681  3680     9 
 3672  3671  3681  3682     9 
 3671  3672  3674  3675     9 
 3671  3672  3674  3676     9 
 3673  3672  3674  3675     9 
 3673  3672  3674  3676     9 
 3672  3674  3676  3677     9 
 3672  3674  3676  3680     9 
 3675  3674  3676  3677     9 
 3675  3674  3676  3680     9 
 3674  3676  3677  3678     9 
 3674  3676  3677  3679     9 
 3680  3676  3677  3678     9 
 3680  3676  3677  3679     9 
 3674  3676  3680  3681     9 
 3677  3676  3680  3681     9 
 3676  3680  3681  3671     9 
 3676  3680  3681  3682     9 
 3666  3683  3685  3669     9 
 3666  3683  3685  3686     9 
 3666  3683  3685  3687     9 
 3684  3683  3685  3669     9 
 3684  3683  3685  3686     9 
 3684  3683  3685  3687     9 
 3688  3683  3685  3669     9 
 3688  3683  3685  3686     9 
 3688  3683  3685  3687     9 
 3666  3683  3688  3689     9 
 3684  3683  3688  3689     9 
 3685  3683  3688  3689     9 
 3683  3688  3689  3690     9 
 3683  3688  3689  3691     9 
 3683  3688  3689  3692     9 
 3688  3689  3692  3693     9 
 3690  3689  3692  3693     9 
 3691  3689  3692  3693     9 
 3689  3692  3693  3694     9 
 3689  3692  3693  3695     9 
 3689  3692  3693  3696     9 
 3692  3693  3696  3697     9 
 3692  3693  3696  3698     9 
 3692  3693  3696  3716     9 
 3694  3693  3696  3697     9 
 3694  3693  3696  3698     9 
 3694  3693  3696  3716     9 
 3695  3693  3696  3697     9 
 3695  3693  3696  3698     9 
 3695  3693  3696  3716     9 
 3693  3696  3698  3699     9 
 3697  3696  3698  3699     9 
 3716  3696  3698  3699     9 
 3693  3696  3716  3717     9 
 3693  3696  3716  3718     9 
 3693  3696  3716  3721     9 
 3697  3696  3716  3717     9 
 3697  3696  3716  3718     9 
 3697  3696  3716  3721     9 
 3698  3696  3716  3717     9 
 3698  3696  3716  3718     9 
 3698  3696  3716  3721     9 
 3696  3698  3699  3700     9 
 3696  3698  3699  3701     9 
 3696  3698  3699  3718     9 
 3698  3699  3701  3702     9 
 3698  3699  3701  3715     9 
 3700  3699  3701  3702     9 
 3700  3699  3701  3715     9 
 3718  3699  3701  3702     9 
 3718  3699  3701  3715     9 
 3698  3699  3718  3716     9 
 3698  3699  3718  3719     9 
 3698  3699  3718  3720     9 
 3700  3699  3718  3716     9 
 3700  3699  3718  3719     9 
 3700  3699  3718  3720     9 
 3701  3699  3718  3716     9 
 3701  3699  3718  3719     9 
 3701  3699  3718  3720     9 
 3699  3701  3702  3703     9 
 3699  3701  3702  3704     9 
 3715  3701  3702  3703     9 
 3715  3701  3702  3704     9 
 3699  3701  3715  3705     9 
 3699  3701  3715  3714     9 
 3702  3701  3715  3705     9 
 3702  3701  3715  3714     9 
 3701  3702  3704  3705     9 
 3703  3702  3704  3705     9 
 3702  3704  3705  3706     9 
 3702  3704  3705  3715     9 
 3704  3705  3706  3707     9 
 3704  3705  3706  3708     9 
 3715  3705  3706  3707     9 
 3715  3705  3706  3708     9 
 3704  3705  3715  3701     9 
 3704  3705  3715  3714     9 
 3706  3705  3715  3701     9 
 3706  3705  3715  3714     9 
 3705  3706  3708  3709     9 
 3705  3706  3708  3710     9 
 3707  3706  3708  3709     9 
 3707  3706  3708  3710     9 
 3706  3708  3710  3711     9 
 3706  3708  3710  3714     9 
 3709  3708  3710  3711     9 
 3709  3708  3710  3714     9 
 3708  3710  3711  3712     9 
 3708  3710  3711  3713     9 
 3714  3710  3711  3712     9 
 3714  3710  3711  3713     9 
 3708  3710  3714  3715     9 
 3711  3710  3714  3715     9 
 3710  3714  3715  3701     9 
 3710  3714  3715  3705     9 
 3696  3716  3718  3699     9 
 3696  3716  3718  3719     9 
 3696  3716  3718  3720     9 
 3717  3716  3718  3699     9 
 3717  3716  3718  3719     9 
 3717  3716  3718  3720     9 
 3721  3716  3718  3699     9 
 3721  3716  3718  3719     9 
 3721  3716  3718  3720     9 
 3696  3716  3721  3722     9 
 3717  3716  3721  3722     9 
 3718  3716  3721  3722     9 
 3716  3721  3722  3723     9 
 3716  3721  3722  3724     9 
 3716  3721  3722  3725     9 
 3721  3722  3725  3726     9 
 3723  3722  3725  3726     9 
 3724  3722  3725  3726     9 
 3722  3725  3726  3727     9 
 3722  3725  3726  3728     9 
 3722  3725  3726  3729     9 
 3725  3726  3729  3730     9 
 3725  3726  3729  3731     9 
 3725  3726  3729  3746     9 
 3727  3726  3729  3730     9 
 3727  3726  3729  3731     9 
 3727  3726  3729  3746     9 
 3728  3726  3729  3730     9 
 3728  3726  3729  3731     9 
 3728  3726  3729  3746     9 
 3726  3729  3731  3732     9 
 3730  3729  3731  3732     9 
 3746  3729  3731  3732     9 
 3726  3729  3746  3747     9 
 3726  3729  3746  3748     9 
 3726  3729  3746  3751     9 
 3730  3729  3746  3747     9 
 3730  3729  3746  3748     9 
 3730  3729  3746  3751     9 
 3731  3729  3746  3747     9 
 3731  3729  3746  3748     9 
 3731  3729  3746  3751     9 
 3729  3731  3732  3733     9 
 3729  3731  3732  3734     9 
 3729  3731  3732  3748     9 
 3731  3732  3734  3735     9 
 3731  3732  3734  3744     9 
 3733  3732  3734  3735     9 
 3733  3732  3734  3744     9 
 3748  3732  3734  3735     9 
 3748  3732  3734  3744     9 
 3731  3732  3748  3746     9 
 3731  3732  3748  3749     9 
 3731  3732  3748  3750     9 
 3733  3732  3748  3746     9 
 3733  3732  3748  3749     9 
 3733  3732  3748  3750     9 
 3734  3732  3748  3746     9 
 3734  3732  3748  3749     9 
 3734  3732  3748  3750     9 
 3732  3734  3735  3736     9 
 3732  3734  3735  3737     9 
 3744  3734  3735  3736     9 
 3744  3734  3735  3737     9 
 3732  3734  3744  3743     9 
 3732  3734  3744  3745     9 
 3735  3734  3744  3743     9 
 3735  3734  3744  3745     9 
 3734  3735  3737  3738     9 
 3734  3735  3737  3739     9 
 3736  3735  3737  3738     9 
 3736  3735  3737  3739     9 
 3735  3737  3739  3740     9 
 3735  3737  3739  3743     9 
 3738  3737  3739  3740     9 
 3738  3737  3739  3743     9 
 3737  3739  3740  3741     9 
 3737  3739  3740  3742     9 
 3743  3739  3740  3741     9 
 3743  3739  3740  3742     9 
 3737  3739  3743  3744     9 
 3740  3739  3743  3744     9 
 3739  3743  3744  3734     9 
 3739  3743  3744  3745     9 
 3729  3746  3748  3732     9 
 3729  3746  3748  3749     9 
 3729  3746  3748  3750     9 
 3747  3746  3748  3732     9 
 3747  3746  3748  3749     9 
 3747  3746  3748  3750     9 
 3751  3746  3748  3732     9 
 3751  3746  3748  3749     9 
 3751  3746  3748  3750     9 
 3729  3746  3751  3752     9 
 3747  3746  3751  3752     9 
 3748  3746  3751  3752     9 
 3746  3751  3752  3753     9 
 3746  3751  3752  3754     9 
 3746  3751  3752  3755     9 
 3751  3752  3755  3756     9 
 3753  3752  3755  3756     9 
 3754  3752  3755  3756     9 
 3752  3755  3756  3757     9 
 3752  3755  3756  3758     9 
 3752  3755  3756  3759     9 
 3755  3756  3759  3760     9 
 3755  3756  3759  3761     9 
 3755  3756  3759  3778     9 
 3757  3756  3759  3760     9 
 3757  3756  3759  3761     9 
 3757  3756  3759  3778     9 
 3758  3756  3759  3760     9 
 3758  3756  3759  3761     9 
 3758  3756  3759  3778     9 
 3756  3759  3761  3762     9 
 3760  3759  3761  3762     9 
 3778  3759  3761  3762     9 
 3756  3759  3778  3779     9 
 3756  3759  3778  3780     9 
 3756  3759  3778  3783     9 
 3760  3759  3778  3779     9 
 3760  3759  3778  3780     9 
 3760  3759  3778  3783     9 
 3761  3759  3778  3779     9 
 3761  3759  3778  3780     9 
 3761  3759  3778  3783     9 
 3759  3761  3762  3763     9 
 3759  3761  3762  3764     9 
 3759  3761  3762  3780     9 
 3761  3762  3764  3765     9 
 3761  3762  3764  3776     9 
 3763  3762  3764  3765     9 
 3763  3762  3764  3776     9 
 3780  3762  3764  3765     9 
 3780  3762  3764  3776     9 
 3761  3762  3780  3778     9 
 3761  3762  3780  3781     9 
 3761  3762  3780  3782     9 
 3763  3762  3780  3778     9 
 3763  3762  3780  3781     9 
 3763  3762  3780  3782     9 
 3764  3762  3780  3778     9 
 3764  3762  3780  3781     9 
 3764  3762  3780  3782     9 
 3762  3764  3765  3766     9 
 3762  3764  3765  3767     9 
 3776  3764  3765  3766     9 
 3776  3764  3765  3767     9 
 3762  3764  3776  3774     9 
 3762  3764  3776  3777     9 
 3765  3764  3776  3774     9 
 3765  3764  3776  3777     9 
 3764  3765  3767  3768     9 
 3764  3765  3767  3772     9 
 3766  3765  3767  3768     9 
 3766  3765  3767  3772     9 
 3765  3767  3768  3769     9 
 3765  3767  3768  3770     9 
 3765  3767  3768  3771     9 
 3772  3767  3768  3769     9 
 3772  3767  3768  3770     9 
 3772  3767  3768  3771     9 
 3765  3767  3772  3773     9 
 3765  3767  3772  3774     9 
 3768  3767  3772  3773     9 
 3768  3767  3772  3774     9 
 3767  3772  3774  3775     9 
 3767  3772  3774  3776     9 
 3773  3772  3774  3775     9 
 3773  3772  3774  3776     9 
 3772  3774  3776  3764     9 
 3772  3774  3776  3777     9 
 3775  3774  3776  3764     9 
 3775  3774  3776  3777     9 
 3759  3778  3780  3762     9 
 3759  3778  3780  3781     9 
 3759  3778  3780  3782     9 
 3779  3778  3780  3762     9 
 3779  3778  3780  3781     9 
 3779  3778  3780  3782     9 
 3783  3778  3780  3762     9 
 3783  3778  3780  3781     9 
 3783  3778  3780  3782     9 
 3759  3778  3783  3784     9 
 3779  3778  3783  3784     9 
 3780  3778  3783  3784     9 
 3778  3783  3784  3785     9 
 3778  3783  3784  3786     9 
 3778  3783  3784  3787     9 
 3783  3784  3787  3788     9 
 3785  3784  3787  3788     9 
 3786  3784  3787  3788     9 
 3784  3787  3788  3789     9 
 3784  3787  3788  3790     9 
 3784  3787  3788  3791     9 
 3787  3788  3791  3792     9 
 3787  3788  3791  3793     9 
 3787  3788  3791  3808     9 
 3789  3788  3791  3792     9 
 3789  3788  3791  3793     9 
 3789  3788  3791  3808     9 
 3790  3788  3791  3792     9 
 3790  3788  3791  3793     9 
 3790  3788  3791  3808     9 
 3788  3791  3793  3794     9 
 3792  3791  3793  3794     9 
 3808  3791  3793  3794     9 
 3788  3791  3808  3809     9 
 3788  3791  3808  3810     9 
 3788  3791  3808  3813     9 
 3792  3791  3808  3809     9 
 3792  3791  3808  3810     9 
 3792  3791  3808  3813     9 
 3793  3791  3808  3809     9 
 3793  3791  3808  3810     9 
 3793  3791  3808  3813     9 
 3791  3793  3794  3795     9 
 3791  3793  3794  3796     9 
 3791  3793  3794  3810     9 
 3793  3794  3796  3797     9 
 3793  3794  3796  3806     9 
 3795  3794  3796  3797     9 
 3795  3794  3796  3806     9 
 3810  3794  3796  3797     9 
 3810  3794  3796  3806     9 
 3793  3794  3810  3808     9 
 3793  3794  3810  3811     9 
 3793  3794  3810  3812     9 
 3795  3794  3810  3808     9 
 3795  3794  3810  3811     9 
 3795  3794  3810  3812     9 
 3796  3794  3810  3808     9 
 3796  3794  3810  3811     9 
 3796  3794  3810  3812     9 
 3794  3796  3797  3798     9 
 3794  3796  3797  3799     9 
 3806  3796  3797  3798     9 
 3806  3796  3797  3799     9 
 3794  3796  3806  3805     9 
 3794  3796  3806  3807     9 
 3797  3796  3806  3805     9 
 3797  3796  3806  3807     9 
 3796  3797  3799  3800     9 
 3796  3797  3799  3801     9 
 3798  3797  3799  3800     9 
 3798  3797  3799  3801     9 
 3797  3799  3801  3802     9 
 3797  3799  3801  3805     9 
 3800  3799  3801  3802     9 
 3800  3799  3801  3805     9 
 3799  3801  3802  3803     9 
 3799  3801  3802  3804     9 
 3805  3801  3802  3803     9 
 3805  3801  3802  3804     9 
 3799  3801  3805  3806     9 
 3802  3801  3805  3806     9 
 3801  3805  3806  3796     9 
 3801  3805  3806  3807     9 
 3791  3808  3810  3794     9 
 3791  3808  3810  3811     9 
 3791  3808  3810  3812     9 
 3809  3808  3810  3794     9 
 3809  3808  3810  3811     9 
 3809  3808  3810  3812     9 
 3813  3808  3810  3794     9 
 3813  3808  3810  3811     9 
 3813  3808  3810  3812     9 
 3791  3808  3813  3814     9 
 3809  3808  3813  3814     9 
 3810  3808  3813  3814     9 
 3808  3813  3814  3815     9 
 3808  3813  3814  3816     9 
 3808  3813  3814  3817     9 
 3813  3814  3817  3818     9 
 3815  3814  3817  3818     9 
 3816  3814  3817  3818     9 
 3814  3817  3818  3819     9 
 3814  3817  3818  3820     9 
 3814  3817  3818  3821     9 
 3817  3818  3821  3822     9 
 3817  3818  3821  3823     9 
 3817  3818  3821  3838     9 
 3819  3818  3821  3822     9 
 3819  3818  3821  3823     9 
 3819  3818  3821  3838     9 
 3820  3818  3821  3822     9 
 3820  3818  3821  3823     9 
 3820  3818  3821  3838     9 
 3818  3821  3823  3824     9 
 3822  3821  3823  3824     9 
 3838  3821  3823  3824     9 
 3818  3821  3838  3839     9 
 3818  3821  3838  3840     9 
 3818  3821  3838  3843     9 
 3822  3821  3838  3839     9 
 3822  3821  3838  3840     9 
 3822  3821  3838  3843     9 
 3823  3821  3838  3839     9 
 3823  3821  3838  3840     9 
 3823  3821  3838  3843     9 
 3821  3823  3824  3825     9 
 3821  3823  3824  3826     9 
 3821  3823  3824  3840     9 
 3823  3824  3826  3827     9 
 3823  3824  3826  3836     9 
 3825  3824  3826  3827     9 
 3825  3824  3826  3836     9 
 3840  3824  3826  3827     9 
 3840  3824  3826  3836     9 
 3823  3824  3840  3838     9 
 3823  3824  3840  3841     9 
 3823  3824  3840  3842     9 
 3825  3824  3840  3838     9 
 3825  3824  3840  3841     9 
 3825  3824  3840  3842     9 
 3826  3824  3840  3838     9 
 3826  3824  3840  3841     9 
 3826  3824  3840  3842     9 
 3824  3826  3827  3828     9 
 3824  3826  3827  3829     9 
 3836  3826  3827  3828     9 
 3836  3826  3827  3829     9 
 3824  3826  3836  3835     9 
 3824  3826  3836  3837     9 
 3827  3826  3836  3835     9 
 3827  3826  3836  3837     9 
 3826  3827  3829  3830     9 
 3826  3827  3829  3831     9 
 3828  3827  3829  3830     9 
 3828  3827  3829  3831     9 
 3827  3829  3831  3832     9 
 3827  3829  3831  3835     9 
 3830  3829  3831  3832     9 
 3830  3829  3831  3835     9 
 3829  3831  3832  3833     9 
 3829  3831  3832  3834     9 
 3835  3831  3832  3833     9 
 3835  3831  3832  3834     9 
 3829  3831  3835  3836     9 
 3832  3831  3835  3836     9 
 3831  3835  3836  3826     9 
 3831  3835  3836  3837     9 
 3821  3838  3840  3824     9 
 3821  3838  3840  3841     9 
 3821  3838  3840  3842     9 
 3839  3838  3840  3824     9 
 3839  3838  3840  3841     9 
 3839  3838  3840  3842     9 
 3843  3838  3840  3824     9 
 3843  3838  3840  3841     9 
 3843  3838  3840  3842     9 
 3821  3838  3843  3844     9 
 3839  3838  3843  3844     9 
 3840  3838  3843  3844     9 
 3838  3843  3844  3845     9 
 3838  3843  3844  3846     9 
 3838  3843  3844  3847     9 
 3843  3844  3847  3848     9 
 3845  3844  3847  3848     9 
 3846  3844  3847  3848     9 
 3844  3847  3848  3849     9 
 3844  3847  3848  3850     9 
 3844  3847  3848  3851     9 
 3847  3848  3851  3852     9 
 3847  3848  3851  3853     9 
 3847  3848  3851  3868     9 
 3849  3848  3851  3852     9 
 3849  3848  3851  3853     9 
 3849  3848  3851  3868     9 
 3850  3848  3851  3852     9 
 3850  3848  3851  3853     9 
 3850  3848  3851  3868     9 
 3848  3851  3853  3854     9 
 3852  3851  3853  3854     9 
 3868  3851  3853  3854     9 
 3848  3851  3868  3869     9 
 3848  3851  3868  3870     9 
 3848  3851  3868  3873     9 
 3852  3851  3868  3869     9 
 3852  3851  3868  3870     9 
 3852  3851  3868  3873     9 
 3853  3851  3868  3869     9 
 3853  3851  3868  3870     9 
 3853  3851  3868  3873     9 
 3851  3853  3854  3855     9 
 3851  3853  3854  3856     9 
 3851  3853  3854  3870     9 
 3853  3854  3856  3857     9 
 3853  3854  3856  3866     9 
 3855  3854  3856  3857     9 
 3855  3854  3856  3866     9 
 3870  3854  3856  3857     9 
 3870  3854  3856  3866     9 
 3853  3854  3870  3868     9 
 3853  3854  3870  3871     9 
 3853  3854  3870  3872     9 
 3855  3854  3870  3868     9 
 3855  3854  3870  3871     9 
 3855  3854  3870  3872     9 
 3856  3854  3870  3868     9 
 3856  3854  3870  3871     9 
 3856  3854  3870  3872     9 
 3854  3856  3857  3858     9 
 3854  3856  3857  3859     9 
 3866  3856  3857  3858     9 
 3866  3856  3857  3859     9 
 3854  3856  3866  3865     9 
 3854  3856  3866  3867     9 
 3857  3856  3866  3865     9 
 3857  3856  3866  3867     9 
 3856  3857  3859  3860     9 
 3856  3857  3859  3861     9 
 3858  3857  3859  3860     9 
 3858  3857  3859  3861     9 
 3857  3859  3861  3862     9 
 3857  3859  3861  3865     9 
 3860  3859  3861  3862     9 
 3860  3859  3861  3865     9 
 3859  3861  3862  3863     9 
 3859  3861  3862  3864     9 
 3865  3861  3862  3863     9 
 3865  3861  3862  3864     9 
 3859  3861  3865  3866     9 
 3862  3861  3865  3866     9 
 3861  3865  3866  3856     9 
 3861  3865  3866  3867     9 
 3851  3868  3870  3854     9 
 3851  3868  3870  3871     9 
 3851  3868  3870  3872     9 
 3869  3868  3870  3854     9 
 3869  3868  3870  3871     9 
 3869  3868  3870  3872     9 
 3873  3868  3870  3854     9 
 3873  3868  3870  3871     9 
 3873  3868  3870  3872     9 
 3851  3868  3873  3874     9 
 3869  3868  3873  3874     9 
 3870  3868  3873  3874     9 
 3868  3873  3874  3875     9 
 3868  3873  3874  3876     9 
 3868  3873  3874  3877     9 
 3873  3874  3877  3878     9 
 3875  3874  3877  3878     9 
 3876  3874  3877  3878     9 
 3874  3877  3878  3879     9 
 3874  3877  3878  3880     9 
 3874  3877  3878  3881     9 
 3877  3878  3881  3882     9 
 3877  3878  3881  3883     9 
 3877  3878  3881  3900     9 
 3879  3878  3881  3882     9 
 3879  3878  3881  3883     9 
 3879  3878  3881  3900     9 
 3880  3878  3881  3882     9 
 3880  3878  3881  3883     9 
 3880  3878  3881  3900     9 
 3878  3881  3883  3884     9 
 3882  3881  3883  3884     9 
 3900  3881  3883  3884     9 
 3878  3881  3900  3901     9 
 3878  3881  3900  3902     9 
 3878  3881  3900  3905     9 
 3882  3881  3900  3901     9 
 3882  3881  3900  3902     9 
 3882  3881  3900  3905     9 
 3883  3881  3900  3901     9 
 3883  3881  3900  3902     9 
 3883  3881  3900  3905     9 
 3881  3883  3884  3885     9 
 3881  3883  3884  3886     9 
 3881  3883  3884  3902     9 
 3883  3884  3886  3887     9 
 3883  3884  3886  3899     9 
 3885  3884  3886  3887     9 
 3885  3884  3886  3899     9 
 3902  3884  3886  3887     9 
 3902  3884  3886  3899     9 
 3883  3884  3902  3900     9 
 3883  3884  3902  3903     9 
 3883  3884  3902  3904     9 
 3885  3884  3902  3900     9 
 3885  3884  3902  3903     9 
 3885  3884  3902  3904     9 
 3886  3884  3902  3900     9 
 3886  3884  3902  3903     9 
 3886  3884  3902  3904     9 
 3884  3886  3887  3888     9 
 3884  3886  3887  3889     9 
 3899  3886  3887  3888     9 
 3899  3886  3887  3889     9 
 3884  3886  3899  3890     9 
 3884  3886  3899  3898     9 
 3887  3886  3899  3890     9 
 3887  3886  3899  3898     9 
 3886  3887  3889  3890     9 
 3888  3887  3889  3890     9 
 3887  3889  3890  3891     9 
 3887  3889  3890  3899     9 
 3889  3890  3891  3892     9 
 3889  3890  3891  3895     9 
 3899  3890  3891  3892     9 
 3899  3890  3891  3895     9 
 3889  3890  3899  3886     9 
 3889  3890  3899  3898     9 
 3891  3890  3899  3886     9 
 3891  3890  3899  3898     9 
 3890  3891  3892  3893     9 
 3890  3891  3892  3894     9 
 3895  3891  3892  3893     9 
 3895  3891  3892  3894     9 
 3890  3891  3895  3896     9 
 3892  3891  3895  3896     9 
 3891  3895  3896  3897     9 
 3891  3895  3896  3898     9 
 3895  3896  3898  3899     9 
 3897  3896  3898  3899     9 
 3896  3898  3899  3886     9 
 3896  3898  3899  3890     9 
 3881  3900  3902  3884     9 
 3881  3900  3902  3903     9 
 3881  3900  3902  3904     9 
 3901  3900  3902  3884     9 
 3901  3900  3902  3903     9 
 3901  3900  3902  3904     9 
 3905  3900  3902  3884     9 
 3905  3900  3902  3903     9 
 3905  3900  3902  3904     9 
 3881  3900  3905  3906     9 
 3901  3900  3905  3906     9 
 3902  3900  3905  3906     9 
 3900  3905  3906  3907     9 
 3900  3905  3906  3908     9 
 3900  3905  3906  3909     9 
 3905  3906  3909  3910     9 
 3907  3906  3909  3910     9 
 3908  3906  3909  3910     9 
 3906  3909  3910  3911     9 
 3906  3909  3910  3912     9 
 3906  3909  3910  3913     9 
 3909  3910  3913  3914     9 
 3909  3910  3913  3915     9 
 3909  3910  3913  3933     9 
 3911  3910  3913  3914     9 
 3911  3910  3913  3915     9 
 3911  3910  3913  3933     9 
 3912  3910  3913  3914     9 
 3912  3910  3913  3915     9 
 3912  3910  3913  3933     9 
 3910  3913  3915  3916     9 
 3914  3913  3915  3916     9 
 3933  3913  3915  3916     9 
 3910  3913  3933  3934     9 
 3910  3913  3933  3935     9 
 3910  3913  3933  3938     9 
 3914  3913  3933  3934     9 
 3914  3913  3933  3935     9 
 3914  3913  3933  3938     9 
 3915  3913  3933  3934     9 
 3915  3913  3933  3935     9 
 3915  3913  3933  3938     9 
 3913  3915  3916  3917     9 
 3913  3915  3916  3918     9 
 3913  3915  3916  3935     9 
 3915  3916  3918  3919     9 
 3915  3916  3918  3932     9 
 3917  3916  3918  3919     9 
 3917  3916  3918  3932     9 
 3935  3916  3918  3919     9 
 3935  3916  3918  3932     9 
 3915  3916  3935  3933     9 
 3915  3916  3935  3936     9 
 3915  3916  3935  3937     9 
 3917  3916  3935  3933     9 
 3917  3916  3935  3936     9 
 3917  3916  3935  3937     9 
 3918  3916  3935  3933     9 
 3918  3916  3935  3936     9 
 3918  3916  3935  3937     9 
 3916  3918  3919  3920     9 
 3916  3918  3919  3921     9 
 3932  3918  3919  3920     9 
 3932  3918  3919  3921     9 
 3916  3918  3932  3922     9 
 3916  3918  3932  3931     9 
 3919  3918  3932  3922     9 
 3919  3918  3932  3931     9 
 3918  3919  3921  3922     9 
 3920  3919  3921  3922     9 
 3919  3921  3922  3923     9 
 3919  3921  3922  3932     9 
 3921  3922  3923  3924     9 
 3921  3922  3923  3925     9 
 3932  3922  3923  3924     9 
 3932  3922  3923  3925     9 
 3921  3922  3932  3918     9 
 3921  3922  3932  3931     9 
 3923  3922  3932  3918     9 
 3923  3922  3932  3931     9 
 3922  3923  3925  3926     9 
 3922  3923  3925  3927     9 
 3924  3923  3925  3926     9 
 3924  3923  3925  3927     9 
 3923  3925  3927  3928     9 
 3923  3925  3927  3931     9 
 3926  3925  3927  3928     9 
 3926  3925  3927  3931     9 
 3925  3927  3928  3929     9 
 3925  3927  3928  3930     9 
 3931  3927  3928  3929     9 
 3931  3927  3928  3930     9 
 3925  3927  3931  3932     9 
 3928  3927  3931  3932     9 
 3927  3931  3932  3918     9 
 3927  3931  3932  3922     9 
 3913  3933  3935  3916     9 
 3913  3933  3935  3936     9 
 3913  3933  3935  3937     9 
 3934  3933  3935  3916     9 
 3934  3933  3935  3936     9 
 3934  3933  3935  3937     9 
 3938  3933  3935  3916     9 
 3938  3933  3935  3936     9 
 3938  3933  3935  3937     9 
 3913  3933  3938  3939     9 
 3934  3933  3938  3939     9 
 3935  3933  3938  3939     9 
 3933  3938  3939  3940     9 
 3933  3938  3939  3941     9 
 3933  3938  3939  3942     9 
 3938  3939  3942  3943     9 
 3940  3939  3942  3943     9 
 3941  3939  3942  3943     9 
 3939  3942  3943  3944     9 
 3939  3942  3943  3945     9 
 3939  3942  3943  3946     9 
 3942  3943  3946  3947     9 
 3942  3943  3946  3948     9 
 3942  3943  3946  3965     9 
 3944  3943  3946  3947     9 
 3944  3943  3946  3948     9 
 3944  3943  3946  3965     9 
 3945  3943  3946  3947     9 
 3945  3943  3946  3948     9 
 3945  3943  3946  3965     9 
 3943  3946  3948  3949     9 
 3947  3946  3948  3949     9 
 3965  3946  3948  3949     9 
 3943  3946  3965  3966     9 
 3943  3946  3965  3967     9 
 3943  3946  3965  3970     9 
 3947  3946  3965  3966     9 
 3947  3946  3965  3967     9 
 3947  3946  3965  3970     9 
 3948  3946  3965  3966     9 
 3948  3946  3965  3967     9 
 3948  3946  3965  3970     9 
 3946  3948  3949  3950     9 
 3946  3948  3949  3951     9 
 3946  3948  3949  3967     9 
 3948  3949  3951  3952     9 
 3948  3949  3951  3963     9 
 3950  3949  3951  3952     9 
 3950  3949  3951  3963     9 
 3967  3949  3951  3952     9 
 3967  3949  3951  3963     9 
 3948  3949  3967  3965     9 
 3948  3949  3967  3968     9 
 3948  3949  3967  3969     9 
 3950  3949  3967  3965     9 
 3950  3949  3967  3968     9 
 3950  3949  3967  3969     9 
 3951  3949  3967  3965     9 
 3951  3949  3967  3968     9 
 3951  3949  3967  3969     9 
 3949  3951  3952  3953     9 
 3949  3951  3952  3954     9 
 3963  3951  3952  3953     9 
 3963  3951  3952  3954     9 
 3949  3951  3963  3961     9 
 3949  3951  3963  3964     9 
 3952  3951  3963  3961     9 
 3952  3951  3963  3964     9 
 3951  3952  3954  3955     9 
 3951  3952  3954  3959     9 
 3953  3952  3954  3955     9 
 3953  3952  3954  3959     9 
 3952  3954  3955  3956     9 
 3952  3954  3955  3957     9 
 3952  3954  3955  3958     9 
 3959  3954  3955  3956     9 
 3959  3954  3955  3957     9 
 3959  3954  3955  3958     9 
 3952  3954  3959  3960     9 
 3952  3954  3959  3961     9 
 3955  3954  3959  3960     9 
 3955  3954  3959  3961     9 
 3954  3959  3961  3962     9 
 3954  3959  3961  3963     9 
 3960  3959  3961  3962     9 
 3960  3959  3961  3963     9 
 3959  3961  3963  3951     9 
 3959  3961  3963  3964     9 
 3962  3961  3963  3951     9 
 3962  3961  3963  3964     9 
 3946  3965  3967  3949     9 
 3946  3965  3967  3968     9 
 3946  3965  3967  3969     9 
 3966  3965  3967  3949     9 
 3966  3965  3967  3968     9 
 3966  3965  3967  3969     9 
 3970  3965  3967  3949     9 
 3970  3965  3967  3968     9 
 3970  3965  3967  3969     9 
 3946  3965  3970  3971     9 
 3966  3965  3970  3971     9 
 3967  3965  3970  3971     9 
 3965  3970  3971  3972     9 
 3965  3970  3971  3973     9 
 3965  3970  3971  3974     9 
 3970  3971  3974  3975     9 
 3972  3971  3974  3975     9 
 3973  3971  3974  3975     9 
 3971  3974  3975  3976     9 
 3971  3974  3975  3977     9 
 3971  3974  3975  3978     9 
 3974  3975  3978  3979     9 
 3974  3975  3978  3980     9 
 3974  3975  3978  3995     9 
 3976  3975  3978  3979     9 
 3976  3975  3978  3980     9 
 3976  3975  3978  3995     9 
 3977  3975  3978  3979     9 
 3977  3975  3978  3980     9 
 3977  3975  3978  3995     9 
 3975  3978  3980  3981     9 
 3979  3978  3980  3981     9 
 3995  3978  3980  3981     9 
 3975  3978  3995  3996     9 
 3975  3978  3995  3997     9 
 3975  3978  3995  4000     9 
 3979  3978  3995  3996     9 
 3979  3978  3995  3997     9 
 3979  3978  3995  4000     9 
 3980  3978  3995  3996     9 
 3980  3978  3995  3997     9 
 3980  3978  3995  4000     9 
 3978  3980  3981  3982     9 
 3978  3980  3981  3983     9 
 3978  3980  3981  3997     9 
 3980  3981  3983  3984     9 
 3980  3981  3983  3993     9 
 3982  3981  3983  3984     9 
 3982  3981  3983  3993     9 
 3997  3981  3983  3984     9 
 3997  3981  3983  3993     9 
 3980  3981  3997  3995     9 
 3980  3981  3997  3998     9 
 3980  3981  3997  3999     9 
 3982  3981  3997  3995     9 
 3982  3981  3997  3998     9 
 3982  3981  3997  3999     9 
 3983  3981  3997  3995     9 
 3983  3981  3997  3998     9 
 3983  3981  3997  3999     9 
 3981  3983  3984  3985     9 
 3981  3983  3984  3986     9 
 3993  3983  3984  3985     9 
 3993  3983  3984  3986     9 
 3981  3983  3993  3992     9 
 3981  3983  3993  3994     9 
 3984  3983  3993  3992     9 
 3984  3983  3993  3994     9 
 3983  3984  3986  3987     9 
 3983  3984  3986  3988     9 
 3985  3984  3986  3987     9 
 3985  3984  3986  3988     9 
 3984  3986  3988  3989     9 
 3984  3986  3988  3992     9 
 3987  3986  3988  3989     9 
 3987  3986  3988  3992     9 
 3986  3988  3989  3990     9 
 3986  3988  3989  3991     9 
 3992  3988  3989  3990     9 
 3992  3988  3989  3991     9 
 3986  3988  3992  3993     9 
 3989  3988  3992  3993     9 
 3988  3992  3993  3983     9 
 3988  3992  3993  3994     9 
 3978  3995  3997  3981     9 
 3978  3995  3997  3998     9 
 3978  3995  3997  3999     9 
 3996  3995  3997  3981     9 
 3996  3995  3997  3998     9 
 3996  3995  3997  3999     9 
 4000  3995  3997  3981     9 
 4000  3995  3997  3998     9 
 4000  3995  3997  3999     9 
 3978  3995  4000  4001     9 
 3996  3995  4000  4001     9 
 3997  3995  4000  4001     9 
 3995  4000  4001  4002     9 
 3995  4000  4001  4003     9 
 3995  4000  4001  4004     9 
 4000  4001  4004  4005     9 
 4002  4001  4004  4005     9 
 4003  4001  4004  4005     9 
 4001  4004  4005  4006     9 
 4001  4004  4005  4007     9 
 4001  4004  4005  4008     9 
 4004  4005  4008  4009     9 
 4004  4005  4008  4010     9 
 4004  4005  4008  4025     9 
 4006  4005  4008  4009     9 
 4006  4005  4008  4010     9 
 4006  4005  4008  4025     9 
 4007  4005  4008  4009     9 
 4007  4005  4008  4010     9 
 4007  4005  4008  4025     9 
 4005  4008  4010  4011     9 
 4009  4008  4010  4011     9 
 4025  4008  4010  4011     9 
 4005  4008  4025  4026     9 
 4005  4008  4025  4027     9 
 4005  4008  4025  4030     9 
 4009  4008  4025  4026     9 
 4009  4008  4025  4027     9 
 4009  4008  4025  4030     9 
 4010  4008  4025  4026     9 
 4010  4008  4025  4027     9 
 4010  4008  4025  4030     9 
 4008  4010  4011  4012     9 
 4008  4010  4011  4013     9 
 4008  4010  4011  4027     9 
 4010  4011  4013  4014     9 
 4010  4011  4013  4023     9 
 4012  4011  4013  4014     9 
 4012  4011  4013  4023     9 
 4027  4011  4013  4014     9 
 4027  4011  4013  4023     9 
 4010  4011  4027  4025     9 
 4010  4011  4027  4028     9 
 4010  4011  4027  4029     9 
 4012  4011  4027  4025     9 
 4012  4011  4027  4028     9 
 4012  4011  4027  4029     9 
 4013  4011  4027  4025     9 
 4013  4011  4027  4028     9 
 4013  4011  4027  4029     9 
 4011  4013  4014  4015     9 
 4011  4013  4014  4016     9 
 4023  4013  4014  4015     9 
 4023  4013  4014  4016     9 
 4011  4013  4023  4022     9 
 4011  4013  4023  4024     9 
 4014  4013  4023  4022     9 
 4014  4013  4023  4024     9 
 4013  4014  4016  4017     9 
 4013  4014  4016  4018     9 
 4015  4014  4016  4017     9 
 4015  4014  4016  4018     9 
 4014  4016  4018  4019     9 
 4014  4016  4018  4022     9 
 4017  4016  4018  4019     9 
 4017  4016  4018  4022     9 
 4016  4018  4019  4020     9 
 4016  4018  4019  4021     9 
 4022  4018  4019  4020     9 
 4022  4018  4019  4021     9 
 4016  4018  4022  4023     9 
 4019  4018  4022  4023     9 
 4018  4022  4023  4013     9 
 4018  4022  4023  4024     9 
 4008  4025  4027  4011     9 
 4008  4025  4027  4028     9 
 4008  4025  4027  4029     9 
 4026  4025  4027  4011     9 
 4026  4025  4027  4028     9 
 4026  4025  4027  4029     9 
 4030  4025  4027  4011     9 
 4030  4025  4027  4028     9 
 4030  4025  4027  4029     9 
 4008  4025  4030  4031     9 
 4026  4025  4030  4031     9 
 4027  4025  4030  4031     9 
 4025  4030  4031  4032     9 
 4025  4030  4031  4033     9 
 4025  4030  4031  4034     9 
 4030  4031  4034  4035     9 
 4032  4031  4034  4035     9 
 4033  4031  4034  4035     9 
 4031  4034  4035  4036     9 
 4031  4034  4035  4037     9 
 4031  4034  4035  4038     9 
 4034  4035  4038  4039     9 
 4034  4035  4038  4040     9 
 4034  4035  4038  4058     9 
 4036  4035  4038  4039     9 
 4036  4035  4038  4040     9 
 4036  4035  4038  4058     9 
 4037  4035  4038  4039     9 
 4037  4035  4038  4040     9 
 4037  4035  4038  4058     9 
 4035  4038  4040  4041     9 
 4039  4038  4040  4041     9 
 4058  4038  4040  4041     9 
 4035  4038  4058  4059     9 
 4035  4038  4058  4060     9 
 4035  4038  4058  4063     9 
 4039  4038  4058  4059     9 
 4039  4038  4058  4060     9 
 4039  4038  4058  4063     9 
 4040  4038  4058  4059     9 
 4040  4038  4058  4060     9 
 4040  4038  4058  4063     9 
 4038  4040  4041  4042     9 
 4038  4040  4041  4043     9 
 4038  4040  4041  4060     9 
 4040  4041  4043  4044     9 
 4040  4041  4043  4057     9 
 4042  4041  4043  4044     9 
 4042  4041  4043  4057     9 
 4060  4041  4043  4044     9 
 4060  4041  4043  4057     9 
 4040  4041  4060  4058     9 
 4040  4041  4060  4061     9 
 4040  4041  4060  4062     9 
 4042  4041  4060  4058     9 
 4042  4041  4060  4061     9 
 4042  4041  4060  4062     9 
 4043  4041  4060  4058     9 
 4043  4041  4060  4061     9 
 4043  4041  4060  4062     9 
 4041  4043  4044  4045     9 
 4041  4043  4044  4046     9 
 4057  4043  4044  4045     9 
 4057  4043  4044  4046     9 
 4041  4043  4057  4047     9 
 4041  4043  4057  4056     9 
 4044  4043  4057  4047     9 
 4044  4043  4057  4056     9 
 4043  4044  4046  4047     9 
 4045  4044  4046  4047     9 
 4044  4046  4047  4048     9 
 4044  4046  4047  4057     9 
 4046  4047  4048  4049     9 
 4046  4047  4048  4050     9 
 4057  4047  4048  4049     9 
 4057  4047  4048  4050     9 
 4046  4047  4057  4043     9 
 4046  4047  4057  4056     9 
 4048  4047  4057  4043     9 
 4048  4047  4057  4056     9 
 4047  4048  4050  4051     9 
 4047  4048  4050  4052     9 
 4049  4048  4050  4051     9 
 4049  4048  4050  4052     9 
 4048  4050  4052  4053     9 
 4048  4050  4052  4056     9 
 4051  4050  4052  4053     9 
 4051  4050  4052  4056     9 
 4050  4052  4053  4054     9 
 4050  4052  4053  4055     9 
 4056  4052  4053  4054     9 
 4056  4052  4053  4055     9 
 4050  4052  4056  4057     9 
 4053  4052  4056  4057     9 
 4052  4056  4057  4043     9 
 4052  4056  4057  4047     9 
 4038  4058  4060  4041     9 
 4038  4058  4060  4061     9 
 4038  4058  4060  4062     9 
 4059  4058  4060  4041     9 
 4059  4058  4060  4061     9 
 4059  4058  4060  4062     9 
 4063  4058  4060  4041     9 
 4063  4058  4060  4061     9 
 4063  4058  4060  4062     9 
 4038  4058  4063  4064     9 
 4059  4058  4063  4064     9 
 4060  4058  4063  4064     9 
 4058  4063  4064  4065     9 
 4058  4063  4064  4066     9 
 4058  4063  4064  4067     9 
 4063  4064  4067  4068     9 
 4065  4064  4067  4068     9 
 4066  4064  4067  4068     9 
 4064  4067  4068  4069     9 
 4064  4067  4068  4070     9 
 4064  4067  4068  4071     9 
 4067  4068  4071  4072     9 
 4067  4068  4071  4073     9 
 4067  4068  4071  4090     9 
 4069  4068  4071  4072     9 
 4069  4068  4071  4073     9 
 4069  4068  4071  4090     9 
 4070  4068  4071  4072     9 
 4070  4068  4071  4073     9 
 4070  4068  4071  4090     9 
 4068  4071  4073  4074     9 
 4072  4071  4073  4074     9 
 4090  4071  4073  4074     9 
 4068  4071  4090  4091     9 
 4068  4071  4090  4092     9 
 4068  4071  4090  4095     9 
 4072  4071  4090  4091     9 
 4072  4071  4090  4092     9 
 4072  4071  4090  4095     9 
 4073  4071  4090  4091     9 
 4073  4071  4090  4092     9 
 4073  4071  4090  4095     9 
 4071  4073  4074  4075     9 
 4071  4073  4074  4076     9 
 4071  4073  4074  4092     9 
 4073  4074  4076  4077     9 
 4073  4074  4076  4089     9 
 4075  4074  4076  4077     9 
 4075  4074  4076  4089     9 
 4092  4074  4076  4077     9 
 4092  4074  4076  4089     9 
 4073  4074  4092  4090     9 
 4073  4074  4092  4093     9 
 4073  4074  4092  4094     9 
 4075  4074  4092  4090     9 
 4075  4074  4092  4093     9 
 4075  4074  4092  4094     9 
 4076  4074  4092  4090     9 
 4076  4074  4092  4093     9 
 4076  4074  4092  4094     9 
 4074  4076  4077  4078     9 
 4074  4076  4077  4079     9 
 4089  4076  4077  4078     9 
 4089  4076  4077  4079     9 
 4074  4076  4089  4080     9 
 4074  4076  4089  4088     9 
 4077  4076  4089  4080     9 
 4077  4076  4089  4088     9 
 4076  4077  4079  4080     9 
 4078  4077  4079  4080     9 
 4077  4079  4080  4081     9 
 4077  4079  4080  4089     9 
 4079  4080  4081  4082     9 
 4079  4080  4081  4085     9 
 4089  4080  4081  4082     9 
 4089  4080  4081  4085     9 
 4079  4080  4089  4076     9 
 4079  4080  4089  4088     9 
 4081  4080  4089  4076     9 
 4081  4080  4089  4088     9 
 4080  4081  4082  4083     9 
 4080  4081  4082  4084     9 
 4085  4081  4082  4083     9 
 4085  4081  4082  4084     9 
 4080  4081  4085  4086     9 
 4082  4081  4085  4086     9 
 4081  4085  4086  4087     9 
 4081  4085  4086  4088     9 
 4085  4086  4088  4089     9 
 4087  4086  4088  4089     9 
 4086  4088  4089  4076     9 
 4086  4088  4089  4080     9 
 4071  4090  4092  4074     9 
 4071  4090  4092  4093     9 
 4071  4090  4092  4094     9 
 4091  4090  4092  4074     9 
 4091  4090  4092  4093     9 
 4091  4090  4092  4094     9 
 4095  4090  4092  4074     9 
 4095  4090  4092  4093     9 
 4095  4090  4092  4094     9 
 4071  4090  4095  4096     9 
 4091  4090  4095  4096     9 
 4092  4090  4095  4096     9 
 4090  4095  4096  4097     9 
 4090  4095  4096  4098     9 
 4090  4095  4096  4099     9 
 4095  4096  4099  4100     9 
 4097  4096  4099  4100     9 
 4098  4096  4099  4100     9 
 4096  4099  4100  4101     9 
 4096  4099  4100  4102     9 
 4096  4099  4100  4103     9 
 4099  4100  4103  4104     9 
 4099  4100  4103  4105     9 
 4099  4100  4103  4122     9 
 4101  4100  4103  4104     9 
 4101  4100  4103  4105     9 
 4101  4100  4103  4122     9 
 4102  4100  4103  4104     9 
 4102  4100  4103  4105     9 
 4102  4100  4103  4122     9 
 4100  4103  4105  4106     9 
 4104  4103  4105  4106     9 
 4122  4103  4105  4106     9 
 4100  4103  4122  4123     9 
 4100  4103  4122  4124     9 
 4100  4103  4122  4127     9 
 4104  4103  4122  4123     9 
 4104  4103  4122  4124     9 
 4104  4103  4122  4127     9 
 4105  4103  4122  4123     9 
 4105  4103  4122  4124     9 
 4105  4103  4122  4127     9 
 4103  4105  4106  4107     9 
 4103  4105  4106  4108     9 
 4103  4105  4106  4124     9 
 4105  4106  4108  4109     9 
 4105  4106  4108  4121     9 
 4107  4106  4108  4109     9 
 4107  4106  4108  4121     9 
 4124  4106  4108  4109     9 
 4124  4106  4108  4121     9 
 4105  4106  4124  4122     9 
 4105  4106  4124  4125     9 
 4105  4106  4124  4126     9 
 4107  4106  4124  4122     9 
 4107  4106  4124  4125     9 
 4107  4106  4124  4126     9 
 4108  4106  4124  4122     9 
 4108  4106  4124  4125     9 
 4108  4106  4124  4126     9 
 4106  4108  4109  4110     9 
 4106  4108  4109  4111     9 
 4121  4108  4109  4110     9 
 4121  4108  4109  4111     9 
 4106  4108  4121  4112     9 
 4106  4108  4121  4120     9 
 4109  4108  4121  4112     9 
 4109  4108  4121  4120     9 
 4108  4109  4111  4112     9 
 4110  4109  4111  4112     9 
 4109  4111  4112  4113     9 
 4109  4111  4112  4121     9 
 4111  4112  4113  4114     9 
 4111  4112  4113  4117     9 
 4121  4112  4113  4114     9 
 4121  4112  4113  4117     9 
 4111  4112  4121  4108     9 
 4111  4112  4121  4120     9 
 4113  4112  4121  4108     9 
 4113  4112  4121  4120     9 
 4112  4113  4114  4115     9 
 4112  4113  4114  4116     9 
 4117  4113  4114  4115     9 
 4117  4113  4114  4116     9 
 4112  4113  4117  4118     9 
 4114  4113  4117  4118     9 
 4113  4117  4118  4119     9 
 4113  4117  4118  4120     9 
 4117  4118  4120  4121     9 
 4119  4118  4120  4121     9 
 4118  4120  4121  4108     9 
 4118  4120  4121  4112     9 
 4103  4122  4124  4106     9 
 4103  4122  4124  4125     9 
 4103  4122  4124  4126     9 
 4123  4122  4124  4106     9 
 4123  4122  4124  4125     9 
 4123  4122  4124  4126     9 
 4127  4122  4124  4106     9 
 4127  4122  4124  4125     9 
 4127  4122  4124  4126     9 
 4103  4122  4127  4128     9 
 4123  4122  4127  4128     9 
 4124  4122  4127  4128     9 
 4122  4127  4128  4129     9 
 4122  4127  4128  4130     9 
 4122  4127  4128  4131     9 
 4127  4128  4131  4132     9 
 4129  4128  4131  4132     9 
 4130  4128  4131  4132     9 
 4128  4131  4132  4133     9 
 4128  4131  4132  4134     9 
 4128  4131  4132  4135     9 
 4131  4132  4135  4136     9 
 4131  4132  4135  4137     9 
 4131  4132  4135  4154     9 
 4133  4132  4135  4136     9 
 4133  4132  4135  4137     9 
 4133  4132  4135  4154     9 
 4134  4132  4135  4136     9 
 4134  4132  4135  4137     9 
 4134  4132  4135  4154     9 
 4132  4135  4137  4138     9 
 4136  4135  4137  4138     9 
 4154  4135  4137  4138     9 
 4132  4135  4154  4155     9 
 4132  4135  4154  4156     9 
 4132  4135  4154  4159     9 
 4136  4135  4154  4155     9 
 4136  4135  4154  4156     9 
 4136  4135  4154  4159     9 
 4137  4135  4154  4155     9 
 4137  4135  4154  4156     9 
 4137  4135  4154  4159     9 
 4135  4137  4138  4139     9 
 4135  4137  4138  4140     9 
 4135  4137  4138  4156     9 
 4137  4138  4140  4141     9 
 4137  4138  4140  4153     9 
 4139  4138  4140  4141     9 
 4139  4138  4140  4153     9 
 4156  4138  4140  4141     9 
 4156  4138  4140  4153     9 
 4137  4138  4156  4154     9 
 4137  4138  4156  4157     9 
 4137  4138  4156  4158     9 
 4139  4138  4156  4154     9 
 4139  4138  4156  4157     9 
 4139  4138  4156  4158     9 
 4140  4138  4156  4154     9 
 4140  4138  4156  4157     9 
 4140  4138  4156  4158     9 
 4138  4140  4141  4142     9 
 4138  4140  4141  4143     9 
 4153  4140  4141  4142     9 
 4153  4140  4141  4143     9 
 4138  4140  4153  4144     9 
 4138  4140  4153  4152     9 
 4141  4140  4153  4144     9 
 4141  4140  4153  4152     9 
 4140  4141  4143  4144     9 
 4142  4141  4143  4144     9 
 4141  4143  4144  4145     9 
 4141  4143  4144  4153     9 
 4143  4144  4145  4146     9 
 4143  4144  4145  4149     9 
 4153  4144  4145  4146     9 
 4153  4144  4145  4149     9 
 4143  4144  4153  4140     9 
 4143  4144  4153  4152     9 
 4145  4144  4153  4140     9 
 4145  4144  4153  4152     9 
 4144  4145  4146  4147     9 
 4144  4145  4146  4148     9 
 4149  4145  4146  4147     9 
 4149  4145  4146  4148     9 
 4144  4145  4149  4150     9 
 4146  4145  4149  4150     9 
 4145  4149  4150  4151     9 
 4145  4149  4150  4152     9 
 4149  4150  4152  4153     9 
 4151  4150  4152  4153     9 
 4150  4152  4153  4140     9 
 4150  4152  4153  4144     9 
 4135  4154  4156  4138     9 
 4135  4154  4156  4157     9 
 4135  4154  4156  4158     9 
 4155  4154  4156  4138     9 
 4155  4154  4156  4157     9 
 4155  4154  4156  4158     9 
 4159  4154  4156  4138     9 
 4159  4154  4156  4157     9 
 4159  4154  4156  4158     9 
 4135  4154  4159  4160     9 
 4155  4154  4159  4160     9 
 4156  4154  4159  4160     9 
 4154  4159  4160  4161     9 
 4154  4159  4160  4162     9 
 4154  4159  4160  4163     9 
 4159  4160  4163  4164     9 
 4161  4160  4163  4164     9 
 4162  4160  4163  4164     9 
 4160  4163  4164  4165     9 
 4160  4163  4164  4166     9 
 4160  4163  4164  4167     9 
 4163  4164  4167  4168     9 
 4163  4164  4167  4169     9 
 4163  4164  4167  4186     9 
 4165  4164  4167  4168     9 
 4165  4164  4167  4169     9 
 4165  4164  4167  4186     9 
 4166  4164  4167  4168     9 
 4166  4164  4167  4169     9 
 4166  4164  4167  4186     9 
 4164  4167  4169  4170     9 
 4168  4167  4169  4170     9 
 4186  4167  4169  4170     9 
 4164  4167  4186  4187     9 
 4164  4167  4186  4188     9 
 4164  4167  4186  4191     9 
 4168  4167  4186  4187     9 
 4168  4167  4186  4188     9 
 4168  4167  4186  4191     9 
 4169  4167  4186  4187     9 
 4169  4167  4186  4188     9 
 4169  4167  4186  4191     9 
 4167  4169  4170  4171     9 
 4167  4169  4170  4172     9 
 4167  4169  4170  4188     9 
 4169  4170  4172  4173     9 
 4169  4170  4172  4184     9 
 4171  4170  4172  4173     9 
 4171  4170  4172  4184     9 
 4188  4170  4172  4173     9 
 4188  4170  4172  4184     9 
 4169  4170  4188  4186     9 
 4169  4170  4188  4189     9 
 4169  4170  4188  4190     9 
 4171  4170  4188  4186     9 
 4171  4170  4188  4189     9 
 4171  4170  4188  4190     9 
 4172  4170  4188  4186     9 
 4172  4170  4188  4189     9 
 4172  4170  4188  4190     9 
 4170  4172  4173  4174     9 
 4170  4172  4173  4175     9 
 4184  4172  4173  4174     9 
 4184  4172  4173  4175     9 
 4170  4172  4184  4182     9 
 4170  4172  4184  4185     9 
 4173  4172  4184  4182     9 
 4173  4172  4184  4185     9 
 4172  4173  4175  4176     9 
 4172  4173  4175  4180     9 
 4174  4173  4175  4176     9 
 4174  4173  4175  4180     9 
 4173  4175  4176  4177     9 
 4173  4175  4176  4178     9 
 4173  4175  4176  4179     9 
 4180  4175  4176  4177     9 
 4180  4175  4176  4178     9 
 4180  4175  4176  4179     9 
 4173  4175  4180  4181     9 
 4173  4175  4180  4182     9 
 4176  4175  4180  4181     9 
 4176  4175  4180  4182     9 
 4175  4180  4182  4183     9 
 4175  4180  4182  4184     9 
 4181  4180  4182  4183     9 
 4181  4180  4182  4184     9 
 4180  4182  4184  4172     9 
 4180  4182  4184  4185     9 
 4183  4182  4184  4172     9 
 4183  4182  4184  4185     9 
 4167  4186  4188  4170     9 
 4167  4186  4188  4189     9 
 4167  4186  4188  4190     9 
 4187  4186  4188  4170     9 
 4187  4186  4188  4189     9 
 4187  4186  4188  4190     9 
 4191  4186  4188  4170     9 
 4191  4186  4188  4189     9 
 4191  4186  4188  4190     9 
 4167  4186  4191  4192     9 
 4187  4186  4191  4192     9 
 4188  4186  4191  4192     9 
 4186  4191  4192  4193     9 
 4186  4191  4192  4194     9 
 4186  4191  4192  4195     9 
 4191  4192  4195  4196     9 
 4193  4192  4195  4196     9 
 4194  4192  4195  4196     9 
 4192  4195  4196  4197     9 
 4192  4195  4196  4198     9 
 4192  4195  4196  4199     9 
 4195  4196  4199  4200     9 
 4195  4196  4199  4201     9 
 4195  4196  4199  4219     9 
 4197  4196  4199  4200     9 
 4197  4196  4199  4201     9 
 4197  4196  4199  4219     9 
 4198  4196  4199  4200     9 
 4198  4196  4199  4201     9 
 4198  4196  4199  4219     9 
 4196  4199  4201  4202     9 
 4200  4199  4201  4202     9 
 4219  4199  4201  4202     9 
 4196  4199  4219  4220     9 
 4196  4199  4219  4221     9 
 4196  4199  4219  4224     9 
 4200  4199  4219  4220     9 
 4200  4199  4219  4221     9 
 4200  4199  4219  4224     9 
 4201  4199  4219  4220     9 
 4201  4199  4219  4221     9 
 4201  4199  4219  4224     9 
 4199  4201  4202  4203     9 
 4199  4201  4202  4204     9 
 4199  4201  4202  4221     9 
 4201  4202  4204  4205     9 
 4201  4202  4204  4218     9 
 4203  4202  4204  4205     9 
 4203  4202  4204  4218     9 
 4221  4202  4204  4205     9 
 4221  4202  4204  4218     9 
 4201  4202  4221  4219     9 
 4201  4202  4221  4222     9 
 4201  4202  4221  4223     9 
 4203  4202  4221  4219     9 
 4203  4202  4221  4222     9 
 4203  4202  4221  4223     9 
 4204  4202  4221  4219     9 
 4204  4202  4221  4222     9 
 4204  4202  4221  4223     9 
 4202  4204  4205  4206     9 
 4202  4204  4205  4207     9 
 4218  4204  4205  4206     9 
 4218  4204  4205  4207     9 
 4202  4204  4218  4208     9 
 4202  4204  4218  4217     9 
 4205  4204  4218  4208     9 
 4205  4204  4218  4217     9 
 4204  4205  4207  4208     9 
 4206  4205  4207  4208     9 
 4205  4207  4208  4209     9 
 4205  4207  4208  4218     9 
 4207  4208  4209  4210     9 
 4207  4208  4209  4211     9 
 4218  4208  4209  4210     9 
 4218  4208  4209  4211     9 
 4207  4208  4218  4204     9 
 4207  4208  4218  4217     9 
 4209  4208  4218  4204     9 
 4209  4208  4218  4217     9 
 4208  4209  4211  4212     9 
 4208  4209  4211  4213     9 
 4210  4209  4211  4212     9 
 4210  4209  4211  4213     9 
 4209  4211  4213  4214     9 
 4209  4211  4213  4217     9 
 4212  4211  4213  4214     9 
 4212  4211  4213  4217     9 
 4211  4213  4214  4215     9 
 4211  4213  4214  4216     9 
 4217  4213  4214  4215     9 
 4217  4213  4214  4216     9 
 4211  4213  4217  4218     9 
 4214  4213  4217  4218     9 
 4213  4217  4218  4204     9 
 4213  4217  4218  4208     9 
 4199  4219  4221  4202     9 
 4199  4219  4221  4222     9 
 4199  4219  4221  4223     9 
 4220  4219  4221  4202     9 
 4220  4219  4221  4222     9 
 4220  4219  4221  4223     9 
 4224  4219  4221  4202     9 
 4224  4219  4221  4222     9 
 4224  4219  4221  4223     9 
 4199  4219  4224  4225     9 
 4220  4219  4224  4225     9 
 4221  4219  4224  4225     9 
 4219  4224  4225  4226     9 
 4219  4224  4225  4227     9 
 4219  4224  4225  4228     9 
 4224  4225  4228  4229     9 
 4226  4225  4228  4229     9 
 4227  4225  4228  4229     9 
 4225  4228  4229  4230     9 
 4225  4228  4229  4231     9 
 4225  4228  4229  4232     9 
 4228  4229  4232  4233     9 
 4228  4229  4232  4234     9 
 4228  4229  4232  4252     9 
 4230  4229  4232  4233     9 
 4230  4229  4232  4234     9 
 4230  4229  4232  4252     9 
 4231  4229  4232  4233     9 
 4231  4229  4232  4234     9 
 4231  4229  4232  4252     9 
 4229  4232  4234  4235     9 
 4233  4232  4234  4235     9 
 4252  4232  4234  4235     9 
 4229  4232  4252  4253     9 
 4229  4232  4252  4254     9 
 4229  4232  4252  4257     9 
 4233  4232  4252  4253     9 
 4233  4232  4252  4254     9 
 4233  4232  4252  4257     9 
 4234  4232  4252  4253     9 
 4234  4232  4252  4254     9 
 4234  4232  4252  4257     9 
 4232  4234  4235  4236     9 
 4232  4234  4235  4237     9 
 4232  4234  4235  4254     9 
 4234  4235  4237  4238     9 
 4234  4235  4237  4251     9 
 4236  4235  4237  4238     9 
 4236  4235  4237  4251     9 
 4254  4235  4237  4238     9 
 4254  4235  4237  4251     9 
 4234  4235  4254  4252     9 
 4234  4235  4254  4255     9 
 4234  4235  4254  4256     9 
 4236  4235  4254  4252     9 
 4236  4235  4254  4255     9 
 4236  4235  4254  4256     9 
 4237  4235  4254  4252     9 
 4237  4235  4254  4255     9 
 4237  4235  4254  4256     9 
 4235  4237  4238  4239     9 
 4235  4237  4238  4240     9 
 4251  4237  4238  4239     9 
 4251  4237  4238  4240     9 
 4235  4237  4251  4241     9 
 4235  4237  4251  4250     9 
 4238  4237  4251  4241     9 
 4238  4237  4251  4250     9 
 4237  4238  4240  4241     9 
 4239  4238  4240  4241     9 
 4238  4240  4241  4242     9 
 4238  4240  4241  4251     9 
 4240  4241  4242  4243     9 
 4240  4241  4242  4244     9 
 4251  4241  4242  4243     9 
 4251  4241  4242  4244     9 
 4240  4241  4251  4237     9 
 4240  4241  4251  4250     9 
 4242  4241  4251  4237     9 
 4242  4241  4251  4250     9 
 4241  4242  4244  4245     9 
 4241  4242  4244  4246     9 
 4243  4242  4244  4245     9 
 4243  4242  4244  4246     9 
 4242  4244  4246  4247     9 
 4242  4244  4246  4250     9 
 4245  4244  4246  4247     9 
 4245  4244  4246  4250     9 
 4244  4246  4247  4248     9 
 4244  4246  4247  4249     9 
 4250  4246  4247  4248     9 
 4250  4246  4247  4249     9 
 4244  4246  4250  4251     9 
 4247  4246  4250  4251     9 
 4246  4250  4251  4237     9 
 4246  4250  4251  4241     9 
 4232  4252  4254  4235     9 
 4232  4252  4254  4255     9 
 4232  4252  4254  4256     9 
 4253  4252  4254  4235     9 
 4253  4252  4254  4255     9 
 4253  4252  4254  4256     9 
 4257  4252  4254  4235     9 
 4257  4252  4254  4255     9 
 4257  4252  4254  4256     9 
 4232  4252  4257  4258     9 
 4253  4252  4257  4258     9 
 4254  4252  4257  4258     9 
 4252  4257  4258  4259     9 
 4252  4257  4258  4260     9 
 4252  4257  4258  4261     9 
 4257  4258  4261  4262     9 
 4259  4258  4261  4262     9 
 4260  4258  4261  4262     9 
 4258  4261  4262  4263     9 
 4258  4261  4262  4264     9 
 4258  4261  4262  4265     9 
 4261  4262  4265  4266     9 
 4261  4262  4265  4267     9 
 4261  4262  4265  4282     9 
 4263  4262  4265  4266     9 
 4263  4262  4265  4267     9 
 4263  4262  4265  4282     9 
 4264  4262  4265  4266     9 
 4264  4262  4265  4267     9 
 4264  4262  4265  4282     9 
 4262  4265  4267  4268     9 
 4266  4265  4267  4268     9 
 4282  4265  4267  4268     9 
 4262  4265  4282  4283     9 
 4262  4265  4282  4284     9 
 4262  4265  4282  4287     9 
 4266  4265  4282  4283     9 
 4266  4265  4282  4284     9 
 4266  4265  4282  4287     9 
 4267  4265  4282  4283     9 
 4267  4265  4282  4284     9 
 4267  4265  4282  4287     9 
 4265  4267  4268  4269     9 
 4265  4267  4268  4270     9 
 4265  4267  4268  4284     9 
 4267  4268  4270  4271     9 
 4267  4268  4270  4280     9 
 4269  4268  4270  4271     9 
 4269  4268  4270  4280     9 
 4284  4268  4270  4271     9 
 4284  4268  4270  4280     9 
 4267  4268  4284  4282     9 
 4267  4268  4284  4285     9 
 4267  4268  4284  4286     9 
 4269  4268  4284  4282     9 
 4269  4268  4284  4285     9 
 4269  4268  4284  4286     9 
 4270  4268  4284  4282     9 
 4270  4268  4284  4285     9 
 4270  4268  4284  4286     9 
 4268  4270  4271  4272     9 
 4268  4270  4271  4273     9 
 4280  4270  4271  4272     9 
 4280  4270  4271  4273     9 
 4268  4270  4280  4279     9 
 4268  4270  4280  4281     9 
 4271  4270  4280  4279     9 
 4271  4270  4280  4281     9 
 4270  4271  4273  4274     9 
 4270  4271  4273  4275     9 
 4272  4271  4273  4274     9 
 4272  4271  4273  4275     9 
 4271  4273  4275  4276     9 
 4271  4273  4275  4279     9 
 4274  4273  4275  4276     9 
 4274  4273  4275  4279     9 
 4273  4275  4276  4277     9 
 4273  4275  4276  4278     9 
 4279  4275  4276  4277     9 
 4279  4275  4276  4278     9 
 4273  4275  4279  4280     9 
 4276  4275  4279  4280     9 
 4275  4279  4280  4270     9 
 4275  4279  4280  4281     9 
 4265  4282  4284  4268     9 
 4265  4282  4284  4285     9 
 4265  4282  4284  4286     9 
 4283  4282  4284  4268     9 
 4283  4282  4284  4285     9 
 4283  4282  4284  4286     9 
 4287  4282  4284  4268     9 
 4287  4282  4284  4285     9 
 4287  4282  4284  4286     9 
 4265  4282  4287  4288     9 
 4283  4282  4287  4288     9 
 4284  4282  4287  4288     9 
 4282  4287  4288  4289     9 
 4282  4287  4288  4290     9 
 4282  4287  4288  4291     9 
 4287  4288  4291  4292     9 
 4289  4288  4291  4292     9 
 4290  4288  4291  4292     9 
 4288  4291  4292  4293     9 
 4288  4291  4292  4294     9 
 4288  4291  4292  4295     9 
 4291  4292  4295  4296     9 
 4291  4292  4295  4297     9 
 4291  4292  4295  4315     9 
 4293  4292  4295  4296     9 
 4293  4292  4295  4297     9 
 4293  4292  4295  4315     9 
 4294  4292  4295  4296     9 
 4294  4292  4295  4297     9 
 4294  4292  4295  4315     9 
 4292  4295  4297  4298     9 
 4296  4295  4297  4298     9 
 4315  4295  4297  4298     9 
 4292  4295  4315  4316     9 
 4292  4295  4315  4317     9 
 4292  4295  4315  4320     9 
 4296  4295  4315  4316     9 
 4296  4295  4315  4317     9 
 4296  4295  4315  4320     9 
 4297  4295  4315  4316     9 
 4297  4295  4315  4317     9 
 4297  4295  4315  4320     9 
 4295  4297  4298  4299     9 
 4295  4297  4298  4300     9 
 4295  4297  4298  4317     9 
 4297  4298  4300  4301     9 
 4297  4298  4300  4314     9 
 4299  4298  4300  4301     9 
 4299  4298  4300  4314     9 
 4317  4298  4300  4301     9 
 4317  4298  4300  4314     9 
 4297  4298  4317  4315     9 
 4297  4298  4317  4318     9 
 4297  4298  4317  4319     9 
 4299  4298  4317  4315     9 
 4299  4298  4317  4318     9 
 4299  4298  4317  4319     9 
 4300  4298  4317  4315     9 
 4300  4298  4317  4318     9 
 4300  4298  4317  4319     9 
 4298  4300  4301  4302     9 
 4298  4300  4301  4303     9 
 4314  4300  4301  4302     9 
 4314  4300  4301  4303     9 
 4298  4300  4314  4304     9 
 4298  4300  4314  4313     9 
 4301  4300  4314  4304     9 
 4301  4300  4314  4313     9 
 4300  4301  4303  4304     9 
 4302  4301  4303  4304     9 
 4301  4303  4304  4305     9 
 4301  4303  4304  4314     9 
 4303  4304  4305  4306     9 
 4303  4304  4305  4307     9 
 4314  4304  4305  4306     9 
 4314  4304  4305  4307     9 
 4303  4304  4314  4300     9 
 4303  4304  4314  4313     9 
 4305  4304  4314  4300     9 
 4305  4304  4314  4313     9 
 4304  4305  4307  4308     9 
 4304  4305  4307  4309     9 
 4306  4305  4307  4308     9 
 4306  4305  4307  4309     9 
 4305  4307  4309  4310     9 
 4305  4307  4309  4313     9 
 4308  4307  4309  4310     9 
 4308  4307  4309  4313     9 
 4307  4309  4310  4311     9 
 4307  4309  4310  4312     9 
 4313  4309  4310  4311     9 
 4313  4309  4310  4312     9 
 4307  4309  4313  4314     9 
 4310  4309  4313  4314     9 
 4309  4313  4314  4300     9 
 4309  4313  4314  4304     9 
 4295  4315  4317  4298     9 
 4295  4315  4317  4318     9 
 4295  4315  4317  4319     9 
 4316  4315  4317  4298     9 
 4316  4315  4317  4318     9 
 4316  4315  4317  4319     9 
 4320  4315  4317  4298     9 
 4320  4315  4317  4318     9 
 4320  4315  4317  4319     9 
 4295  4315  4320  4321     9 
 4316  4315  4320  4321     9 
 4317  4315  4320  4321     9 
 4315  4320  4321  4322     9 
 4315  4320  4321  4323     9 
 4315  4320  4321  4324     9 
 4320  4321  4324  4325     9 
 4322  4321  4324  4325     9 
 4323  4321  4324  4325     9 
 4321  4324  4325  4326     9 
 4321  4324  4325  4327     9 
 4321  4324  4325  4328     9 
 4324  4325  4328  4329     9 
 4324  4325  4328  4330     9 
 4324  4325  4328  4348     9 
 4326  4325  4328  4329     9 
 4326  4325  4328  4330     9 
 4326  4325  4328  4348     9 
 4327  4325  4328  4329     9 
 4327  4325  4328  4330     9 
 4327  4325  4328  4348     9 
 4325  4328  4330  4331     9 
 4329  4328  4330  4331     9 
 4348  4328  4330  4331     9 
 4325  4328  4348  4349     9 
 4325  4328  4348  4350     9 
 4325  4328  4348  4353     9 
 4329  4328  4348  4349     9 
 4329  4328  4348  4350     9 
 4329  4328  4348  4353     9 
 4330  4328  4348  4349     9 
 4330  4328  4348  4350     9 
 4330  4328  4348  4353     9 
 4328  4330  4331  4332     9 
 4328  4330  4331  4333     9 
 4328  4330  4331  4350     9 
 4330  4331  4333  4334     9 
 4330  4331  4333  4347     9 
 4332  4331  4333  4334     9 
 4332  4331  4333  4347     9 
 4350  4331  4333  4334     9 
 4350  4331  4333  4347     9 
 4330  4331  4350  4348     9 
 4330  4331  4350  4351     9 
 4330  4331  4350  4352     9 
 4332  4331  4350  4348     9 
 4332  4331  4350  4351     9 
 4332  4331  4350  4352     9 
 4333  4331  4350  4348     9 
 4333  4331  4350  4351     9 
 4333  4331  4350  4352     9 
 4331  4333  4334  4335     9 
 4331  4333  4334  4336     9 
 4347  4333  4334  4335     9 
 4347  4333  4334  4336     9 
 4331  4333  4347  4337     9 
 4331  4333  4347  4346     9 
 4334  4333  4347  4337     9 
 4334  4333  4347  4346     9 
 4333  4334  4336  4337     9 
 4335  4334  4336  4337     9 
 4334  4336  4337  4338     9 
 4334  4336  4337  4347     9 
 4336  4337  4338  4339     9 
 4336  4337  4338  4340     9 
 4347  4337  4338  4339     9 
 4347  4337  4338  4340     9 
 4336  4337  4347  4333     9 
 4336  4337  4347  4346     9 
 4338  4337  4347  4333     9 
 4338  4337  4347  4346     9 
 4337  4338  4340  4341     9 
 4337  4338  4340  4342     9 
 4339  4338  4340  4341     9 
 4339  4338  4340  4342     9 
 4338  4340  4342  4343     9 
 4338  4340  4342  4346     9 
 4341  4340  4342  4343     9 
 4341  4340  4342  4346     9 
 4340  4342  4343  4344     9 
 4340  4342  4343  4345     9 
 4346  4342  4343  4344     9 
 4346  4342  4343  4345     9 
 4340  4342  4346  4347     9 
 4343  4342  4346  4347     9 
 4342  4346  4347  4333     9 
 4342  4346  4347  4337     9 
 4328  4348  4350  4331     9 
 4328  4348  4350  4351     9 
 4328  4348  4350  4352     9 
 4349  4348  4350  4331     9 
 4349  4348  4350  4351     9 
 4349  4348  4350  4352     9 
 4353  4348  4350  4331     9 
 4353  4348  4350  4351     9 
 4353  4348  4350  4352     9 
 4328  4348  4353  4354     9 
 4349  4348  4353  4354     9 
 4350  4348  4353  4354     9 
 4348  4353  4354  4355     9 
 4348  4353  4354  4356     9 
 4348  4353  4354  4357     9 
 4353  4354  4357  4358     9 
 4355  4354  4357  4358     9 
 4356  4354  4357  4358     9 
 4354  4357  4358  4359     9 
 4354  4357  4358  4360     9 
 4354  4357  4358  4361     9 
 4357  4358  4361  4362     9 
 4357  4358  4361  4363     9 
 4357  4358  4361  4381     9 
 4359  4358  4361  4362     9 
 4359  4358  4361  4363     9 
 4359  4358  4361  4381     9 
 4360  4358  4361  4362     9 
 4360  4358  4361  4363     9 
 4360  4358  4361  4381     9 
 4358  4361  4363  4364     9 
 4362  4361  4363  4364     9 
 4381  4361  4363  4364     9 
 4358  4361  4381  4382     9 
 4358  4361  4381  4383     9 
 4358  4361  4381  4386     9 
 4362  4361  4381  4382     9 
 4362  4361  4381  4383     9 
 4362  4361  4381  4386     9 
 4363  4361  4381  4382     9 
 4363  4361  4381  4383     9 
 4363  4361  4381  4386     9 
 4361  4363  4364  4365     9 
 4361  4363  4364  4366     9 
 4361  4363  4364  4383     9 
 4363  4364  4366  4367     9 
 4363  4364  4366  4380     9 
 4365  4364  4366  4367     9 
 4365  4364  4366  4380     9 
 4383  4364  4366  4367     9 
 4383  4364  4366  4380     9 
 4363  4364  4383  4381     9 
 4363  4364  4383  4384     9 
 4363  4364  4383  4385     9 
 4365  4364  4383  4381     9 
 4365  4364  4383  4384     9 
 4365  4364  4383  4385     9 
 4366  4364  4383  4381     9 
 4366  4364  4383  4384     9 
 4366  4364  4383  4385     9 
 4364  4366  4367  4368     9 
 4364  4366  4367  4369     9 
 4380  4366  4367  4368     9 
 4380  4366  4367  4369     9 
 4364  4366  4380  4370     9 
 4364  4366  4380  4379     9 
 4367  4366  4380  4370     9 
 4367  4366  4380  4379     9 
 4366  4367  4369  4370     9 
 4368  4367  4369  4370     9 
 4367  4369  4370  4371     9 
 4367  4369  4370  4380     9 
 4369  4370  4371  4372     9 
 4369  4370  4371  4373     9 
 4380  4370  4371  4372     9 
 4380  4370  4371  4373     9 
 4369  4370  4380  4366     9 
 4369  4370  4380  4379     9 
 4371  4370  4380  4366     9 
 4371  4370  4380  4379     9 
 4370  4371  4373  4374     9 
 4370  4371  4373  4375     9 
 4372  4371  4373  4374     9 
 4372  4371  4373  4375     9 
 4371  4373  4375  4376     9 
 4371  4373  4375  4379     9 
 4374  4373  4375  4376     9 
 4374  4373  4375  4379     9 
 4373  4375  4376  4377     9 
 4373  4375  4376  4378     9 
 4379  4375  4376  4377     9 
 4379  4375  4376  4378     9 
 4373  4375  4379  4380     9 
 4376  4375  4379  4380     9 
 4375  4379  4380  4366     9 
 4375  4379  4380  4370     9 
 4361  4381  4383  4364     9 
 4361  4381  4383  4384     9 
 4361  4381  4383  4385     9 
 4382  4381  4383  4364     9 
 4382  4381  4383  4384     9 
 4382  4381  4383  4385     9 
 4386  4381  4383  4364     9 
 4386  4381  4383  4384     9 
 4386  4381  4383  4385     9 
 4361  4381  4386  4387     9 
 4382  4381  4386  4387     9 
 4383  4381  4386  4387     9 
 4381  4386  4387  4388     9 
 4381  4386  4387  4389     9 
 4381  4386  4387  4390     9 
 4386  4387  4390  4391     9 
 4388  4387  4390  4391     9 
 4389  4387  4390  4391     9 
 4387  4390  4391  4392     9 
 4387  4390  4391  4393     9 
 4387  4390  4391  4394     9 
 4390  4391  4394  4395     9 
 4390  4391  4394  4396     9 
 4390  4391  4394  4414     9 
 4392  4391  4394  4395     9 
 4392  4391  4394  4396     9 
 4392  4391  4394  4414     9 
 4393  4391  4394  4395     9 
 4393  4391  4394  4396     9 
 4393  4391  4394  4414     9 
 4391  4394  4396  4397     9 
 4395  4394  4396  4397     9 
 4414  4394  4396  4397     9 
 4391  4394  4414  4415     9 
 4391  4394  4414  4416     9 
 4391  4394  4414  4419     9 
 4395  4394  4414  4415     9 
 4395  4394  4414  4416     9 
 4395  4394  4414  4419     9 
 4396  4394  4414  4415     9 
 4396  4394  4414  4416     9 
 4396  4394  4414  4419     9 
 4394  4396  4397  4398     9 
 4394  4396  4397  4399     9 
 4394  4396  4397  4416     9 
 4396  4397  4399  4400     9 
 4396  4397  4399  4413     9 
 4398  4397  4399  4400     9 
 4398  4397  4399  4413     9 
 4416  4397  4399  4400     9 
 4416  4397  4399  4413     9 
 4396  4397  4416  4414     9 
 4396  4397  4416  4417     9 
 4396  4397  4416  4418     9 
 4398  4397  4416  4414     9 
 4398  4397  4416  4417     9 
 4398  4397  4416  4418     9 
 4399  4397  4416  4414     9 
 4399  4397  4416  4417     9 
 4399  4397  4416  4418     9 
 4397  4399  4400  4401     9 
 4397  4399  4400  4402     9 
 4413  4399  4400  4401     9 
 4413  4399  4400  4402     9 
 4397  4399  4413  4403     9 
 4397  4399  4413  4412     9 
 4400  4399  4413  4403     9 
 4400  4399  4413  4412     9 
 4399  4400  4402  4403     9 
 4401  4400  4402  4403     9 
 4400  4402  4403  4404     9 
 4400  4402  4403  4413     9 
 4402  4403  4404  4405     9 
 4402  4403  4404  4406     9 
 4413  4403  4404  4405     9 
 4413  4403  4404  4406     9 
 4402  4403  4413  4399     9 
 4402  4403  4413  4412     9 
 4404  4403  4413  4399     9 
 4404  4403  4413  4412     9 
 4403  4404  4406  4407     9 
 4403  4404  4406  4408     9 
 4405  4404  4406  4407     9 
 4405  4404  4406  4408     9 
 4404  4406  4408  4409     9 
 4404  4406  4408  4412     9 
 4407  4406  4408  4409     9 
 4407  4406  4408  4412     9 
 4406  4408  4409  4410     9 
 4406  4408  4409  4411     9 
 4412  4408  4409  4410     9 
 4412  4408  4409  4411     9 
 4406  4408  4412  4413     9 
 4409  4408  4412  4413     9 
 4408  4412  4413  4399     9 
 4408  4412  4413  4403     9 
 4394  4414  4416  4397     9 
 4394  4414  4416  4417     9 
 4394  4414  4416  4418     9 
 4415  4414  4416  4397     9 
 4415  4414  4416  4417     9 
 4415  4414  4416  4418     9 
 4419  4414  4416  4397     9 
 4419  4414  4416  4417     9 
 4419  4414  4416  4418     9 
 4394  4414  4419  4420     9 
 4415  4414  4419  4420     9 
 4416  4414  4419  4420     9 
 4414  4419  4420  4421     9 
 4414  4419  4420  4422     9 
 4414  4419  4420  4423     9 
 4419  4420  4423  4424     9 
 4421  4420  4423  4424     9 
 4422  4420  4423  4424     9 
 4420  4423  4424  4425     9 
 4420  4423  4424  4426     9 
 4420  4423  4424  4427     9 
 4423  4424  4427  4428     9 
 4423  4424  4427  4429     9 
 4423  4424  4427  4447     9 
 4425  4424  4427  4428     9 
 4425  4424  4427  4429     9 
 4425  4424  4427  4447     9 
 4426  4424  4427  4428     9 
 4426  4424  4427  4429     9 
 4426  4424  4427  4447     9 
 4424  4427  4429  4430     9 
 4428  4427  4429  4430     9 
 4447  4427  4429  4430     9 
 4424  4427  4447  4448     9 
 4424  4427  4447  4449     9 
 4424  4427  4447  4452     9 
 4428  4427  4447  4448     9 
 4428  4427  4447  4449     9 
 4428  4427  4447  4452     9 
 4429  4427  4447  4448     9 
 4429  4427  4447  4449     9 
 4429  4427  4447  4452     9 
 4427  4429  4430  4431     9 
 4427  4429  4430  4432     9 
 4427  4429  4430  4449     9 
 4429  4430  4432  4433     9 
 4429  4430  4432  4446     9 
 4431  4430  4432  4433     9 
 4431  4430  4432  4446     9 
 4449  4430  4432  4433     9 
 4449  4430  4432  4446     9 
 4429  4430  4449  4447     9 
 4429  4430  4449  4450     9 
 4429  4430  4449  4451     9 
 4431  4430  4449  4447     9 
 4431  4430  4449  4450     9 
 4431  4430  4449  4451     9 
 4432  4430  4449  4447     9 
 4432  4430  4449  4450     9 
 4432  4430  4449  4451     9 
 4430  4432  4433  4434     9 
 4430  4432  4433  4435     9 
 4446  4432  4433  4434     9 
 4446  4432  4433  4435     9 
 4430  4432  4446  4436     9 
 4430  4432  4446  4445     9 
 4433  4432  4446  4436     9 
 4433  4432  4446  4445     9 
 4432  4433  4435  4436     9 
 4434  4433  4435  4436     9 
 4433  4435  4436  4437     9 
 4433  4435  4436  4446     9 
 4435  4436  4437  4438     9 
 4435  4436  4437  4439     9 
 4446  4436  4437  4438     9 
 4446  4436  4437  4439     9 
 4435  4436  4446  4432     9 
 4435  4436  4446  4445     9 
 4437  4436  4446  4432     9 
 4437  4436  4446  4445     9 
 4436  4437  4439  4440     9 
 4436  4437  4439  4441     9 
 4438  4437  4439  4440     9 
 4438  4437  4439  4441     9 
 4437  4439  4441  4442     9 
 4437  4439  4441  4445     9 
 4440  4439  4441  4442     9 
 4440  4439  4441  4445     9 
 4439  4441  4442  4443     9 
 4439  4441  4442  4444     9 
 4445  4441  4442  4443     9 
 4445  4441  4442  4444     9 
 4439  4441  4445  4446     9 
 4442  4441  4445  4446     9 
 4441  4445  4446  4432     9 
 4441  4445  4446  4436     9 
 4427  4447  4449  4430     9 
 4427  4447  4449  4450     9 
 4427  4447  4449  4451     9 
 4448  4447  4449  4430     9 
 4448  4447  4449  4450     9 
 4448  4447  4449  4451     9 
 4452  4447  4449  4430     9 
 4452  4447  4449  4450     9 
 4452  4447  4449  4451     9 
 4427  4447  4452  4453     9 
 4448  4447  4452  4453     9 
 4449  4447  4452  4453     9 
 4447  4452  4453  4454     9 
 4447  4452  4453  4455     9 
 4447  4452  4453  4456     9 
 4452  4453  4456  4457     9 
 4454  4453  4456  4457     9 
 4455  4453  4456  4457     9 
 4453  4456  4457  4458     9 
 4453  4456  4457  4459     9 
 4453  4456  4457  4460     9 
 4456  4457  4460  4461     9 
 4456  4457  4460  4462     9 
 4456  4457  4460  4477     9 
 4458  4457  4460  4461     9 
 4458  4457  4460  4462     9 
 4458  4457  4460  4477     9 
 4459  4457  4460  4461     9 
 4459  4457  4460  4462     9 
 4459  4457  4460  4477     9 
 4457  4460  4462  4463     9 
 4461  4460  4462  4463     9 
 4477  4460  4462  4463     9 
 4457  4460  4477  4478     9 
 4457  4460  4477  4479     9 
 4457  4460  4477  4482     9 
 4461  4460  4477  4478     9 
 4461  4460  4477  4479     9 
 4461  4460  4477  4482     9 
 4462  4460  4477  4478     9 
 4462  4460  4477  4479     9 
 4462  4460  4477  4482     9 
 4460  4462  4463  4464     9 
 4460  4462  4463  4465     9 
 4460  4462  4463  4479     9 
 4462  4463  4465  4466     9 
 4462  4463  4465  4475     9 
 4464  4463  4465  4466     9 
 4464  4463  4465  4475     9 
 4479  4463  4465  4466     9 
 4479  4463  4465  4475     9 
 4462  4463  4479  4477     9 
 4462  4463  4479  4480     9 
 4462  4463  4479  4481     9 
 4464  4463  4479  4477     9 
 4464  4463  4479  4480     9 
 4464  4463  4479  4481     9 
 4465  4463  4479  4477     9 
 4465  4463  4479  4480     9 
 4465  4463  4479  4481     9 
 4463  4465  4466  4467     9 
 4463  4465  4466  4468     9 
 4475  4465  4466  4467     9 
 4475  4465  4466  4468     9 
 4463  4465  4475  4474     9 
 4463  4465  4475  4476     9 
 4466  4465  4475  4474     9 
 4466  4465  4475  4476     9 
 4465  4466  4468  4469     9 
 4465  4466  4468  4470     9 
 4467  4466  4468  4469     9 
 4467  4466  4468  4470     9 
 4466  4468  4470  4471     9 
 4466  4468  4470  4474     9 
 4469  4468  4470  4471     9 
 4469  4468  4470  4474     9 
 4468  4470  4471  4472     9 
 4468  4470  4471  4473     9 
 4474  4470  4471  4472     9 
 4474  4470  4471  4473     9 
 4468  4470  4474  4475     9 
 4471  4470  4474  4475     9 
 4470  4474  4475  4465     9 
 4470  4474  4475  4476     9 
 4460  4477  4479  4463     9 
 4460  4477  4479  4480     9 
 4460  4477  4479  4481     9 
 4478  4477  4479  4463     9 
 4478  4477  4479  4480     9 
 4478  4477  4479  4481     9 
 4482  4477  4479  4463     9 
 4482  4477  4479  4480     9 
 4482  4477  4479  4481     9 
 4460  4477  4482  4483     9 
 4478  4477  4482  4483     9 
 4479  4477  4482  4483     9 
 4477  4482  4483  4484     9 
 4477  4482  4483  4485     9 
 4477  4482  4483  4486     9 
 4482  4483  4486  4487     9 
 4484  4483  4486  4487     9 
 4485  4483  4486  4487     9 
 4483  4486  4487  4488     9 
 4483  4486  4487  4489     9 
 4483  4486  4487  4490     9 
 4486  4487  4490  4491     9 
 4486  4487  4490  4492     9 
 4486  4487  4490  4507     9 
 4488  4487  4490  4491     9 
 4488  4487  4490  4492     9 
 4488  4487  4490  4507     9 
 4489  4487  4490  4491     9 
 4489  4487  4490  4492     9 
 4489  4487  4490  4507     9 
 4487  4490  4492  4493     9 
 4491  4490  4492  4493     9 
 4507  4490  4492  4493     9 
 4487  4490  4507  4508     9 
 4487  4490  4507  4509     9 
 4487  4490  4507  4512     9 
 4491  4490  4507  4508     9 
 4491  4490  4507  4509     9 
 4491  4490  4507  4512     9 
 4492  4490  4507  4508     9 
 4492  4490  4507  4509     9 
 4492  4490  4507  4512     9 
 4490  4492  4493  4494     9 
 4490  4492  4493  4495     9 
 4490  4492  4493  4509     9 
 4492  4493  4495  4496     9 
 4492  4493  4495  4505     9 
 4494  4493  4495  4496     9 
 4494  4493  4495  4505     9 
 4509  4493  4495  4496     9 
 4509  4493  4495  4505     9 
 4492  4493  4509  4507     9 
 4492  4493  4509  4510     9 
 4492  4493  4509  4511     9 
 4494  4493  4509  4507     9 
 4494  4493  4509  4510     9 
 4494  4493  4509  4511     9 
 4495  4493  4509  4507     9 
 4495  4493  4509  4510     9 
 4495  4493  4509  4511     9 
 4493  4495  4496  4497     9 
 4493  4495  4496  4498     9 
 4505  4495  4496  4497     9 
 4505  4495  4496  4498     9 
 4493  4495  4505  4504     9 
 4493  4495  4505  4506     9 
 4496  4495  4505  4504     9 
 4496  4495  4505  4506     9 
 4495  4496  4498  4499     9 
 4495  4496  4498  4500     9 
 4497  4496  4498  4499     9 
 4497  4496  4498  4500     9 
 4496  4498  4500  4501     9 
 4496  4498  4500  4504     9 
 4499  4498  4500  4501     9 
 4499  4498  4500  4504     9 
 4498  4500  4501  4502     9 
 4498  4500  4501  4503     9 
 4504  4500  4501  4502     9 
 4504  4500  4501  4503     9 
 4498  4500  4504  4505     9 
 4501  4500  4504  4505     9 
 4500  4504  4505  4495     9 
 4500  4504  4505  4506     9 
 4490  4507  4509  4493     9 
 4490  4507  4509  4510     9 
 4490  4507  4509  4511     9 
 4508  4507  4509  4493     9 
 4508  4507  4509  4510     9 
 4508  4507  4509  4511     9 
 4512  4507  4509  4493     9 
 4512  4507  4509  4510     9 
 4512  4507  4509  4511     9 
 4490  4507  4512  4513     9 
 4508  4507  4512  4513     9 
 4509  4507  4512  4513     9 
 4507  4512  4513  4514     9 
 4507  4512  4513  4515     9 
 4507  4512  4513  4516     9 
 4512  4513  4516  4517     9 
 4514  4513  4516  4517     9 
 4515  4513  4516  4517     9 
 4513  4516  4517  4518     9 
 4513  4516  4517  4519     9 
 4513  4516  4517  4520     9 
 4516  4517  4520  4521     9 
 4516  4517  4520  4522     9 
 4516  4517  4520  4540     9 
 4518  4517  4520  4521     9 
 4518  4517  4520  4522     9 
 4518  4517  4520  4540     9 
 4519  4517  4520  4521     9 
 4519  4517  4520  4522     9 
 4519  4517  4520  4540     9 
 4517  4520  4522  4523     9 
 4521  4520  4522  4523     9 
 4540  4520  4522  4523     9 
 4517  4520  4540  4541     9 
 4517  4520  4540  4542     9 
 4517  4520  4540  4545     9 
 4521  4520  4540  4541     9 
 4521  4520  4540  4542     9 
 4521  4520  4540  4545     9 
 4522  4520  4540  4541     9 
 4522  4520  4540  4542     9 
 4522  4520  4540  4545     9 
 4520  4522  4523  4524     9 
 4520  4522  4523  4525     9 
 4520  4522  4523  4542     9 
 4522  4523  4525  4526     9 
 4522  4523  4525  4539     9 
 4524  4523  4525  4526     9 
 4524  4523  4525  4539     9 
 4542  4523  4525  4526     9 
 4542  4523  4525  4539     9 
 4522  4523  4542  4540     9 
 4522  4523  4542  4543     9 
 4522  4523  4542  4544     9 
 4524  4523  4542  4540     9 
 4524  4523  4542  4543     9 
 4524  4523  4542  4544     9 
 4525  4523  4542  4540     9 
 4525  4523  4542  4543     9 
 4525  4523  4542  4544     9 
 4523  4525  4526  4527     9 
 4523  4525  4526  4528     9 
 4539  4525  4526  4527     9 
 4539  4525  4526  4528     9 
 4523  4525  4539  4529     9 
 4523  4525  4539  4538     9 
 4526  4525  4539  4529     9 
 4526  4525  4539  4538     9 
 4525  4526  4528  4529     9 
 4527  4526  4528  4529     9 
 4526  4528  4529  4530     9 
 4526  4528  4529  4539     9 
 4528  4529  4530  4531     9 
 4528  4529  4530  4532     9 
 4539  4529  4530  4531     9 
 4539  4529  4530  4532     9 
 4528  4529  4539  4525     9 
 4528  4529  4539  4538     9 
 4530  4529  4539  4525     9 
 4530  4529  4539  4538     9 
 4529  4530  4532  4533     9 
 4529  4530  4532  4534     9 
 4531  4530  4532  4533     9 
 4531  4530  4532  4534     9 
 4530  4532  4534  4535     9 
 4530  4532  4534  4538     9 
 4533  4532  4534  4535     9 
 4533  4532  4534  4538     9 
 4532  4534  4535  4536     9 
 4532  4534  4535  4537     9 
 4538  4534  4535  4536     9 
 4538  4534  4535  4537     9 
 4532  4534  4538  4539     9 
 4535  4534  4538  4539     9 
 4534  4538  4539  4525     9 
 4534  4538  4539  4529     9 
 4520  4540  4542  4523     9 
 4520  4540  4542  4543     9 
 4520  4540  4542  4544     9 
 4541  4540  4542  4523     9 
 4541  4540  4542  4543     9 
 4541  4540  4542  4544     9 
 4545  4540  4542  4523     9 
 4545  4540  4542  4543     9 
 4545  4540  4542  4544     9 
 4520  4540  4545  4546     9 
 4541  4540  4545  4546     9 
 4542  4540  4545  4546     9 
 4540  4545  4546  4547     9 
 4540  4545  4546  4548     9 
 4540  4545  4546  4549     9 
 4545  4546  4549  4550     9 
 4547  4546  4549  4550     9 
 4548  4546  4549  4550     9 
 4546  4549  4550  4551     9 
 4546  4549  4550  4552     9 
 4546  4549  4550  4553     9 
 4549  4550  4553  4554     9 
 4549  4550  4553  4555     9 
 4549  4550  4553  4573     9 
 4551  4550  4553  4554     9 
 4551  4550  4553  4555     9 
 4551  4550  4553  4573     9 
 4552  4550  4553  4554     9 
 4552  4550  4553  4555     9 
 4552  4550  4553  4573     9 
 4550  4553  4555  4556     9 
 4554  4553  4555  4556     9 
 4573  4553  4555  4556     9 
 4550  4553  4573  4574     9 
 4550  4553  4573  4575     9 
 4550  4553  4573  4578     9 
 4554  4553  4573  4574     9 
 4554  4553  4573  4575     9 
 4554  4553  4573  4578     9 
 4555  4553  4573  4574     9 
 4555  4553  4573  4575     9 
 4555  4553  4573  4578     9 
 4553  4555  4556  4557     9 
 4553  4555  4556  4558     9 
 4553  4555  4556  4575     9 
 4555  4556  4558  4559     9 
 4555  4556  4558  4572     9 
 4557  4556  4558  4559     9 
 4557  4556  4558  4572     9 
 4575  4556  4558  4559     9 
 4575  4556  4558  4572     9 
 4555  4556  4575  4573     9 
 4555  4556  4575  4576     9 
 4555  4556  4575  4577     9 
 4557  4556  4575  4573     9 
 4557  4556  4575  4576     9 
 4557  4556  4575  4577     9 
 4558  4556  4575  4573     9 
 4558  4556  4575  4576     9 
 4558  4556  4575  4577     9 
 4556  4558  4559  4560     9 
 4556  4558  4559  4561     9 
 4572  4558  4559  4560     9 
 4572  4558  4559  4561     9 
 4556  4558  4572  4562     9 
 4556  4558  4572  4571     9 
 4559  4558  4572  4562     9 
 4559  4558  4572  4571     9 
 4558  4559  4561  4562     9 
 4560  4559  4561  4562     9 
 4559  4561  4562  4563     9 
 4559  4561  4562  4572     9 
 4561  4562  4563  4564     9 
 4561  4562  4563  4565     9 
 4572  4562  4563  4564     9 
 4572  4562  4563  4565     9 
 4561  4562  4572  4558     9 
 4561  4562  4572  4571     9 
 4563  4562  4572  4558     9 
 4563  4562  4572  4571     9 
 4562  4563  4565  4566     9 
 4562  4563  4565  4567     9 
 4564  4563  4565  4566     9 
 4564  4563  4565  4567     9 
 4563  4565  4567  4568     9 
 4563  4565  4567  4571     9 
 4566  4565  4567  4568     9 
 4566  4565  4567  4571     9 
 4565  4567  4568  4569     9 
 4565  4567  4568  4570     9 
 4571  4567  4568  4569     9 
 4571  4567  4568  4570     9 
 4565  4567  4571  4572     9 
 4568  4567  4571  4572     9 
 4567  4571  4572  4558     9 
 4567  4571  4572  4562     9 
 4553  4573  4575  4556     9 
 4553  4573  4575  4576     9 
 4553  4573  4575  4577     9 
 4574  4573  4575  4556     9 
 4574  4573  4575  4576     9 
 4574  4573  4575  4577     9 
 4578  4573  4575  4556     9 
 4578  4573  4575  4576     9 
 4578  4573  4575  4577     9 
 4553  4573  4578  4579     9 
 4574  4573  4578  4579     9 
 4575  4573  4578  4579     9 
 4573  4578  4579  4580     9 
 4573  4578  4579  4581     9 
 4573  4578  4579  4582     9 
 4578  4579  4582  4583     9 
 4580  4579  4582  4583     9 
 4581  4579  4582  4583     9 
 4579  4582  4583  4584     9 
 4579  4582  4583  4585     9 
 4579  4582  4583  4586     9 
 4582  4583  4586  4587     9 
 4582  4583  4586  4588     9 
 4582  4583  4586  4606     9 
 4584  4583  4586  4587     9 
 4584  4583  4586  4588     9 
 4584  4583  4586  4606     9 
 4585  4583  4586  4587     9 
 4585  4583  4586  4588     9 
 4585  4583  4586  4606     9 
 4583  4586  4588  4589     9 
 4587  4586  4588  4589     9 
 4606  4586  4588  4589     9 
 4583  4586  4606  4607     9 
 4583  4586  4606  4608     9 
 4583  4586  4606  4611     9 
 4587  4586  4606  4607     9 
 4587  4586  4606  4608     9 
 4587  4586  4606  4611     9 
 4588  4586  4606  4607     9 
 4588  4586  4606  4608     9 
 4588  4586  4606  4611     9 
 4586  4588  4589  4590     9 
 4586  4588  4589  4591     9 
 4586  4588  4589  4608     9 
 4588  4589  4591  4592     9 
 4588  4589  4591  4605     9 
 4590  4589  4591  4592     9 
 4590  4589  4591  4605     9 
 4608  4589  4591  4592     9 
 4608  4589  4591  4605     9 
 4588  4589  4608  4606     9 
 4588  4589  4608  4609     9 
 4588  4589  4608  4610     9 
 4590  4589  4608  4606     9 
 4590  4589  4608  4609     9 
 4590  4589  4608  4610     9 
 4591  4589  4608  4606     9 
 4591  4589  4608  4609     9 
 4591  4589  4608  4610     9 
 4589  4591  4592  4593     9 
 4589  4591  4592  4594     9 
 4605  4591  4592  4593     9 
 4605  4591  4592  4594     9 
 4589  4591  4605  4595     9 
 4589  4591  4605  4604     9 
 4592  4591  4605  4595     9 
 4592  4591  4605  4604     9 
 4591  4592  4594  4595     9 
 4593  4592  4594  4595     9 
 4592  4594  4595  4596     9 
 4592  4594  4595  4605     9 
 4594  4595  4596  4597     9 
 4594  4595  4596  4598     9 
 4605  4595  4596  4597     9 
 4605  4595  4596  4598     9 
 4594  4595  4605  4591     9 
 4594  4595  4605  4604     9 
 4596  4595  4605  4591     9 
 4596  4595  4605  4604     9 
 4595  4596  4598  4599     9 
 4595  4596  4598  4600     9 
 4597  4596  4598  4599     9 
 4597  4596  4598  4600     9 
 4596  4598  4600  4601     9 
 4596  4598  4600  4604     9 
 4599  4598  4600  4601     9 
 4599  4598  4600  4604     9 
 4598  4600  4601  4602     9 
 4598  4600  4601  4603     9 
 4604  4600  4601  4602     9 
 4604  4600  4601  4603     9 
 4598  4600  4604  4605     9 
 4601  4600  4604  4605     9 
 4600  4604  4605  4591     9 
 4600  4604  4605  4595     9 
 4586  4606  4608  4589     9 
 4586  4606  4608  4609     9 
 4586  4606  4608  4610     9 
 4607  4606  4608  4589     9 
 4607  4606  4608  4609     9 
 4607  4606  4608  4610     9 
 4611  4606  4608  4589     9 
 4611  4606  4608  4609     9 
 4611  4606  4608  4610     9 
 4586  4606  4611  4612     9 
 4607  4606  4611  4612     9 
 4608  4606  4611  4612     9 

[ dihedrals ]
;  ai    aj    ak    al funct            c0            c1            c2            c3
    9    11    12    24     4 
   11    14    12    13     4 
   15    17    16    20     4 
   16    18    17    19     4 
   20    23    21    22     4 
   41    43    44    57     4 
   43    46    44    45     4 
   47    50    48    49     4 
   48    52    50    51     4 
   52    54    53    55     4 
   53    50    52    56     4 
   74    76    77    90     4 
   76    79    77    78     4 
   80    83    81    82     4 
   81    85    83    84     4 
   85    87    86    88     4 
   86    83    85    89     4 
  107   109   110   123     4 
  109   112   110   111     4 
  113   116   114   115     4 
  114   118   116   117     4 
  118   120   119   121     4 
  119   116   118   122     4 
  140   142   143   154     4 
  142   145   143   144     4 
  142   152   154   155     4 
  145   152   150   151     4 
  146   145   143   150     4 
  150   154   152   153     4 
  172   174   175   184     4 
  174   177   175   176     4 
  174   183   184   185     4 
  175   179   177   178     4 
  177   180   179   183     4 
  179   181   180   182     4 
  202   204   205   218     4 
  204   207   205   206     4 
  208   211   209   210     4 
  209   213   211   212     4 
  213   215   214   216     4 
  214   211   213   217     4 
  235   237   238   251     4 
  237   240   238   239     4 
  241   244   242   243     4 
  242   246   244   245     4 
  246   248   247   249     4 
  247   244   246   250     4 
  268   270   271   284     4 
  270   273   271   272     4 
  274   277   275   276     4 
  275   279   277   278     4 
  279   281   280   282     4 
  280   277   279   283     4 
  301   303   304   316     4 
  303   306   304   305     4 
  307   309   308   312     4 
  308   310   309   311     4 
  312   315   313   314     4 
  333   335   336   345     4 
  335   338   336   337     4 
  335   344   345   346     4 
  336   340   338   339     4 
  338   341   340   344     4 
  340   342   341   343     4 
  363   365   366   375     4 
  365   368   366   367     4 
  365   374   375   376     4 
  366   370   368   369     4 
  368   371   370   374     4 
  370   372   371   373     4 
  393   395   396   405     4 
  395   398   396   397     4 
  395   404   405   406     4 
  396   400   398   399     4 
  398   401   400   404     4 
  400   402   401   403     4 
  423   425   426   439     4 
  425   428   426   427     4 
  429   432   430   431     4 
  430   434   432   433     4 
  434   436   435   437     4 
  435   432   434   438     4 
  456   458   459   472     4 
  458   461   459   460     4 
  462   465   463   464     4 
  463   467   465   466     4 
  467   469   468   470     4 
  468   465   467   471     4 
  489   491   492   505     4 
  491   494   492   493     4 
  495   498   496   497     4 
  496   500   498   499     4 
  500   502   501   503     4 
  501   498   500   504     4 
  522   524   525   534     4 
  524   527   525   526     4 
  524   533   534   535     4 
  525   529   527   528     4 
  527   530   529   533     4 
  529   531   530   532     4 
  552   554   555   567     4 
  554   557   555   556     4 
  558   560   559   563     4 
  559   561   560   562     4 
  563   566   564   565     4 
  584   586   587   600     4 
  586   589   587   588     4 
  590   593   591   592     4 
  591   595   593   594     4 
  595   597   596   598     4 
  596   593   595   599     4 
  617   619   620   633     4 
  619   622   620   621     4 
  623   626   624   625     4 
  624   628   626   627     4 
  628   630   629   631     4 
  629   626   628   632     4 
  650   652   653   666     4 
  652   655   653   654     4 
  656   659   657   658     4 
  657   661   659   660     4 
  661   663   662   664     4 
  662   659   661   665     4 
  683   685   686   699     4 
  685   688   686   687     4 
  689   692   690   691     4 
  690   694   692   693     4 
  694   696   695   697     4 
  695   692   694   698     4 
  716   718   719   728     4 
  718   721   719   720     4 
  718   727   728   729     4 
  719   723   721   722     4 
  721   724   723   727     4 
  723   725   724   726     4 
  746   748   749   758     4 
  748   751   749   750     4 
  748   757   758   759     4 
  749   753   751   752     4 
  751   754   753   757     4 
  753   755   754   756     4 
  776   778   779   788     4 
  778   781   779   780     4 
  778   787   788   789     4 
  779   783   781   782     4 
  781   784   783   787     4 
  783   785   784   786     4 
  806   808   809   821     4 
  808   811   809   810     4 
  812   814   813   817     4 
  813   815   814   816     4 
  817   820   818   819     4 
  838   840   841   854     4 
  840   843   841   842     4 
  844   847   845   846     4 
  845   849   847   848     4 
  849   851   850   852     4 
  850   847   849   853     4 
  871   873   874   887     4 
  873   876   874   875     4 
  877   880   878   879     4 
  878   882   880   881     4 
  882   884   883   885     4 
  883   880   882   886     4 
  904   906   907   919     4 
  906   909   907   908     4 
  910   912   911   915     4 
  911   913   912   914     4 
  915   918   916   917     4 
  936   938   939   952     4 
  938   941   939   940     4 
  942   945   943   944     4 
  943   947   945   946     4 
  947   949   948   950     4 
  948   945   947   951     4 
  969   971   972   985     4 
  971   974   972   973     4 
  975   978   976   977     4 
  976   980   978   979     4 
  980   982   981   983     4 
  981   978   980   984     4 
 1002  1004  1005  1018     4 
 1004  1007  1005  1006     4 
 1008  1011  1009  1010     4 
 1009  1013  1011  1012     4 
 1013  1015  1014  1016     4 
 1014  1011  1013  1017     4 
 1035  1037  1038  1051     4 
 1037  1040  1038  1039     4 
 1041  1044  1042  1043     4 
 1042  1046  1044  1045     4 
 1046  1048  1047  1049     4 
 1047  1044  1046  1050     4 
 1068  1070  1071  1082     4 
 1070  1073  1071  1072     4 
 1070  1080  1082  1083     4 
 1073  1080  1078  1079     4 
 1074  1073  1071  1078     4 
 1078  1082  1080  1081     4 
 1100  1102  1103  1116     4 
 1102  1105  1103  1104     4 
 1106  1109  1107  1108     4 
 1107  1111  1109  1110     4 
 1111  1113  1112  1114     4 
 1112  1109  1111  1115     4 
 1133  1135  1136  1149     4 
 1135  1138  1136  1137     4 
 1139  1142  1140  1141     4 
 1140  1144  1142  1143     4 
 1144  1146  1145  1147     4 
 1145  1142  1144  1148     4 
 1166  1168  1169  1180     4 
 1168  1171  1169  1170     4 
 1168  1178  1180  1181     4 
 1171  1178  1176  1177     4 
 1172  1171  1169  1176     4 
 1176  1180  1178  1179     4 
 1198  1200  1201  1210     4 
 1200  1203  1201  1202     4 
 1200  1209  1210  1211     4 
 1201  1205  1203  1204     4 
 1203  1206  1205  1209     4 
 1205  1207  1206  1208     4 
 1228  1230  1231  1240     4 
 1230  1233  1231  1232     4 
 1230  1239  1240  1241     4 
 1231  1235  1233  1234     4 
 1233  1236  1235  1239     4 
 1235  1237  1236  1238     4 
 1258  1260  1261  1274     4 
 1260  1263  1261  1262     4 
 1264  1267  1265  1266     4 
 1265  1269  1267  1268     4 
 1269  1271  1270  1272     4 
 1270  1267  1269  1273     4 
 1291  1293  1294  1303     4 
 1293  1296  1294  1295     4 
 1293  1302  1303  1304     4 
 1294  1298  1296  1297     4 
 1296  1299  1298  1302     4 
 1298  1300  1299  1301     4 
 1321  1323  1324  1335     4 
 1323  1326  1324  1325     4 
 1323  1333  1335  1336     4 
 1326  1333  1331  1332     4 
 1327  1326  1324  1331     4 
 1331  1335  1333  1334     4 
 1353  1355  1356  1365     4 
 1355  1358  1356  1357     4 
 1355  1364  1365  1366     4 
 1356  1360  1358  1359     4 
 1358  1361  1360  1364     4 
 1360  1362  1361  1363     4 
 1383  1385  1386  1395     4 
 1385  1388  1386  1387     4 
 1385  1394  1395  1396     4 
 1386  1390  1388  1389     4 
 1388  1391  1390  1394     4 
 1390  1392  1391  1393     4 
 1413  1415  1416  1429     4 
 1415  1418  1416  1417     4 
 1419  1422  1420  1421     4 
 1420  1424  1422  1423     4 
 1424  1426  1425  1427     4 
 1425  1422  1424  1428     4 
 1446  1448  1449  1460     4 
 1448  1451  1449  1450     4 
 1448  1458  1460  1461     4 
 1451  1458  1456  1457     4 
 1452  1451  1449  1456     4 
 1456  1460  1458  1459     4 
 1478  1480  1481  1493     4 
 1480  1483  1481  1482     4 
 1484  1486  1485  1489     4 
 1485  1487  1486  1488     4 
 1489  1492  1490  1491     4 
 1510  1512  1513  1522     4 
 1512  1515  1513  1514     4 
 1512  1521  1522  1523     4 
 1513  1517  1515  1516     4 
 1515  1518  1517  1521     4 
 1517  1519  1518  1520     4 
 1540  1542  1543  1552     4 
 1542  1545  1543  1544     4 
 1542  1551  1552  1553     4 
 1543  1547  1545  1546     4 
 1545  1548  1547  1551     4 
 1547  1549  1548  1550     4 
 1570  1572  1573  1584     4 
 1572  1575  1573  1574     4 
 1572  1582  1584  1585     4 
 1575  1582  1580  1581     4 
 1576  1575  1573  1580     4 
 1580  1584  1582  1583     4 
 1602  1604  1605  1614     4 
 1604  1607  1605  1606     4 
 1604  1613  1614  1615     4 
 1605  1609  1607  1608     4 
 1607  1610  1609  1613     4 
 1609  1611  1610  1612     4 
 1632  1634  1635  1646     4 
 1634  1637  1635  1636     4 
 1634  1644  1646  1647     4 
 1637  1644  1642  1643     4 
 1638  1637  1635  1642     4 
 1642  1646  1644  1645     4 
 1664  1666  1667  1676     4 
 1666  1669  1667  1668     4 
 1666  1675  1676  1677     4 
 1667  1671  1669  1670     4 
 1669  1672  1671  1675     4 
 1671  1673  1672  1674     4 
 1694  1696  1697  1708     4 
 1696  1699  1697  1698     4 
 1696  1706  1708  1709     4 
 1699  1706  1704  1705     4 
 1700  1699  1697  1704     4 
 1704  1708  1706  1707     4 
 1726  1728  1729  1738     4 
 1728  1731  1729  1730     4 
 1728  1737  1738  1739     4 
 1729  1733  1731  1732     4 
 1731  1734  1733  1737     4 
 1733  1735  1734  1736     4 
 1756  1758  1759  1768     4 
 1758  1761  1759  1760     4 
 1758  1767  1768  1769     4 
 1759  1763  1761  1762     4 
 1761  1764  1763  1767     4 
 1763  1765  1764  1766     4 
 1786  1788  1789  1798     4 
 1788  1791  1789  1790     4 
 1788  1797  1798  1799     4 
 1789  1793  1791  1792     4 
 1791  1794  1793  1797     4 
 1793  1795  1794  1796     4 
 1816  1818  1819  1832     4 
 1818  1821  1819  1820     4 
 1822  1825  1823  1824     4 
 1823  1827  1825  1826     4 
 1827  1829  1828  1830     4 
 1828  1825  1827  1831     4 
 1849  1851  1852  1861     4 
 1851  1854  1852  1853     4 
 1851  1860  1861  1862     4 
 1852  1856  1854  1855     4 
 1854  1857  1856  1860     4 
 1856  1858  1857  1859     4 
 1879  1881  1882  1894     4 
 1881  1884  1882  1883     4 
 1885  1887  1886  1890     4 
 1886  1888  1887  1889     4 
 1890  1893  1891  1892     4 
 1911  1913  1914  1923     4 
 1913  1916  1914  1915     4 
 1913  1922  1923  1924     4 
 1914  1918  1916  1917     4 
 1916  1919  1918  1922     4 
 1918  1920  1919  1921     4 
 1941  1943  1944  1953     4 
 1943  1946  1944  1945     4 
 1943  1952  1953  1954     4 
 1944  1948  1946  1947     4 
 1946  1949  1948  1952     4 
 1948  1950  1949  1951     4 
 1971  1973  1974  1985     4 
 1973  1976  1974  1975     4 
 1973  1983  1985  1986     4 
 1976  1983  1981  1982     4 
 1977  1976  1974  1981     4 
 1981  1985  1983  1984     4 
 2003  2005  2006  2019     4 
 2005  2008  2006  2007     4 
 2009  2012  2010  2011     4 
 2010  2014  2012  2013     4 
 2014  2016  2015  2017     4 
 2015  2012  2014  2018     4 
 2036  2038  2039  2052     4 
 2038  2041  2039  2040     4 
 2042  2045  2043  2044     4 
 2043  2047  2045  2046     4 
 2047  2049  2048  2050     4 
 2048  2045  2047  2051     4 
 2069  2071  2072  2085     4 
 2071  2074  2072  2073     4 
 2075  2078  2076  2077     4 
 2076  2080  2078  2079     4 
 2080  2082  2081  2083     4 
 2081  2078  2080  2084     4 
 2102  2104  2105  2117     4 
 2104  2107  2105  2106     4 
 2108  2110  2109  2113     4 
 2109  2111  2110  2112     4 
 2113  2116  2114  2115     4 
 2134  2136  2137  2150     4 
 2136  2139  2137  2138     4 
 2140  2143  2141  2142     4 
 2141  2145  2143  2144     4 
 2145  2147  2146  2148     4 
 2146  2143  2145  2149     4 
 2167  2169  2170  2179     4 
 2169  2172  2170  2171     4 
 2169  2178  2179  2180     4 
 2170  2174  2172  2173     4 
 2172  2175  2174  2178     4 
 2174  2176  2175  2177     4 
 2197  2199  2200  2209     4 
 2199  2202  2200  2201     4 
 2199  2208  2209  2210     4 
 2200  2204  2202  2203     4 
 2202  2205  2204  2208     4 
 2204  2206  2205  2207     4 
 2227  2229  2230  2243     4 
 2229  2232  2230  2231     4 
 2233  2236  2234  2235     4 
 2234  2238  2236  2237     4 
 2238  2240  2239  2241     4 
 2239  2236  2238  2242     4 
 2260  2262  2263  2272     4 
 2262  2265  2263  2264     4 
 2262  2271  2272  2273     4 
 2263  2267  2265  2266     4 
 2265  2268  2267  2271     4 
 2267  2269  2268  2270     4 
 2290  2292  2293  2304     4 
 2292  2295  2293  2294     4 
 2292  2302  2304  2305     4 
 2295  2302  2300  2301     4 
 2296  2295  2293  2300     4 
 2300  2304  2302  2303     4 
 2322  2324  2325  2338     4 
 2324  2327  2325  2326     4 
 2328  2331  2329  2330     4 
 2329  2333  2331  2332     4 
 2333  2335  2334  2336     4 
 2334  2331  2333  2337     4 
 2355  2357  2358  2370     4 
 2357  2360  2358  2359     4 
 2361  2363  2362  2366     4 
 2362  2364  2363  2365     4 
 2366  2369  2367  2368     4 
 2387  2389  2390  2403     4 
 2389  2392  2390  2391     4 
 2393  2396  2394  2395     4 
 2394  2398  2396  2397     4 
 2398  2400  2399  2401     4 
 2399  2396  2398  2402     4 
 2420  2422  2423  2432     4 
 2422  2425  2423  2424     4 
 2422  2431  2432  2433     4 
 2423  2427  2425  2426     4 
 2425  2428  2427  2431     4 
 2427  2429  2428  2430     4 
 2450  2452  2453  2462     4 
 2452  2455  2453  2454     4 
 2452  2461  2462  2463     4 
 2453  2457  2455  2456     4 
 2455  2458  2457  2461     4 
 2457  2459  2458  2460     4 
 2480  2482  2483  2494     4 
 2482  2485  2483  2484     4 
 2482  2492  2494  2495     4 
 2485  2492  2490  2491     4 
 2486  2485  2483  2490     4 
 2490  2494  2492  2493     4 
 2512  2514  2515  2524     4 
 2514  2517  2515  2516     4 
 2514  2523  2524  2525     4 
 2515  2519  2517  2518     4 
 2517  2520  2519  2523     4 
 2519  2521  2520  2522     4 
 2542  2544  2545  2556     4 
 2544  2547  2545  2546     4 
 2544  2554  2556  2557     4 
 2547  2554  2552  2553     4 
 2548  2547  2545  2552     4 
 2552  2556  2554  2555     4 
 2574  2576  2577  2590     4 
 2576  2579  2577  2578     4 
 2580  2583  2581  2582     4 
 2581  2585  2583  2584     4 
 2585  2587  2586  2588     4 
 2586  2583  2585  2589     4 
 2607  2609  2610  2623     4 
 2609  2612  2610  2611     4 
 2613  2616  2614  2615     4 
 2614  2618  2616  2617     4 
 2618  2620  2619  2621     4 
 2619  2616  2618  2622     4 
 2640  2642  2643  2652     4 
 2642  2645  2643  2644     4 
 2642  2651  2652  2653     4 
 2643  2647  2645  2646     4 
 2645  2648  2647  2651     4 
 2647  2649  2648  2650     4 
 2670  2672  2673  2682     4 
 2672  2675  2673  2674     4 
 2672  2681  2682  2683     4 
 2673  2677  2675  2676     4 
 2675  2678  2677  2681     4 
 2677  2679  2678  2680     4 
 2700  2702  2703  2712     4 
 2702  2705  2703  2704     4 
 2702  2711  2712  2713     4 
 2703  2707  2705  2706     4 
 2705  2708  2707  2711     4 
 2707  2709  2708  2710     4 
 2730  2732  2733  2742     4 
 2732  2735  2733  2734     4 
 2732  2741  2742  2743     4 
 2733  2737  2735  2736     4 
 2735  2738  2737  2741     4 
 2737  2739  2738  2740     4 
 2760  2762  2763  2776     4 
 2762  2765  2763  2764     4 
 2766  2769  2767  2768     4 
 2767  2771  2769  2770     4 
 2771  2773  2772  2774     4 
 2772  2769  2771  2775     4 
 2793  2795  2796  2805     4 
 2795  2798  2796  2797     4 
 2795  2804  2805  2806     4 
 2796  2800  2798  2799     4 
 2798  2801  2800  2804     4 
 2800  2802  2801  2803     4 
 2823  2825  2826  2835     4 
 2825  2828  2826  2827     4 
 2825  2834  2835  2836     4 
 2826  2830  2828  2829     4 
 2828  2831  2830  2834     4 
 2830  2832  2831  2833     4 
 2853  2855  2856  2869     4 
 2855  2858  2856  2857     4 
 2859  2862  2860  2861     4 
 2860  2864  2862  2863     4 
 2864  2866  2865  2867     4 
 2865  2862  2864  2868     4 
 2886  2888  2889  2898     4 
 2888  2891  2889  2890     4 
 2888  2897  2898  2899     4 
 2889  2893  2891  2892     4 
 2891  2894  2893  2897     4 
 2893  2895  2894  2896     4 
 2916  2918  2919  2928     4 
 2918  2921  2919  2920     4 
 2918  2927  2928  2929     4 
 2919  2923  2921  2922     4 
 2921  2924  2923  2927     4 
 2923  2925  2924  2926     4 
 2946  2948  2949  2962     4 
 2948  2951  2949  2950     4 
 2952  2955  2953  2954     4 
 2953  2957  2955  2956     4 
 2957  2959  2958  2960     4 
 2958  2955  2957  2961     4 
 2979  2981  2982  2991     4 
 2981  2984  2982  2983     4 
 2981  2990  2991  2992     4 
 2982  2986  2984  2985     4 
 2984  2987  2986  2990     4 
 2986  2988  2987  2989     4 
 3009  3011  3012  3021     4 
 3011  3014  3012  3013     4 
 3011  3020  3021  3022     4 
 3012  3016  3014  3015     4 
 3014  3017  3016  3020     4 
 3016  3018  3017  3019     4 
 3039  3041  3042  3053     4 
 3041  3044  3042  3043     4 
 3041  3051  3053  3054     4 
 3044  3051  3049  3050     4 
 3045  3044  3042  3049     4 
 3049  3053  3051  3052     4 
 3071  3073  3074  3085     4 
 3073  3076  3074  3075     4 
 3073  3083  3085  3086     4 
 3076  3083  3081  3082     4 
 3077  3076  3074  3081     4 
 3081  3085  3083  3084     4 
 3103  3105  3106  3115     4 
 3105  3108  3106  3107     4 
 3105  3114  3115  3116     4 
 3106  3110  3108  3109     4 
 3108  3111  3110  3114     4 
 3110  3112  3111  3113     4 
 3133  3135  3136  3148     4 
 3135  3138  3136  3137     4 
 3139  3141  3140  3144     4 
 3140  3142  3141  3143     4 
 3144  3147  3145  3146     4 
 3165  3167  3168  3181     4 
 3167  3170  3168  3169     4 
 3171  3174  3172  3173     4 
 3172  3176  3174  3175     4 
 3176  3178  3177  3179     4 
 3177  3174  3176  3180     4 
 3198  3200  3201  3212     4 
 3200  3203  3201  3202     4 
 3200  3210  3212  3213     4 
 3203  3210  3208  3209     4 
 3204  3203  3201  3208     4 
 3208  3212  3210  3211     4 
 3230  3232  3233  3246     4 
 3232  3235  3233  3234     4 
 3236  3239  3237  3238     4 
 3237  3241  3239  3240     4 
 3241  3243  3242  3244     4 
 3242  3239  3241  3245     4 
 3263  3265  3266  3275     4 
 3265  3268  3266  3267     4 
 3265  3274  3275  3276     4 
 3266  3270  3268  3269     4 
 3268  3271  3270  3274     4 
 3270  3272  3271  3273     4 
 3293  3295  3296  3305     4 
 3295  3298  3296  3297     4 
 3295  3304  3305  3306     4 
 3296  3300  3298  3299     4 
 3298  3301  3300  3304     4 
 3300  3302  3301  3303     4 
 3323  3325  3326  3337     4 
 3325  3328  3326  3327     4 
 3325  3335  3337  3338     4 
 3328  3335  3333  3334     4 
 3329  3328  3326  3333     4 
 3333  3337  3335  3336     4 
 3355  3357  3358  3371     4 
 3357  3360  3358  3359     4 
 3361  3364  3362  3363     4 
 3362  3366  3364  3365     4 
 3366  3368  3367  3369     4 
 3367  3364  3366  3370     4 
 3388  3390  3391  3400     4 
 3390  3393  3391  3392     4 
 3390  3399  3400  3401     4 
 3391  3395  3393  3394     4 
 3393  3396  3395  3399     4 
 3395  3397  3396  3398     4 
 3418  3420  3421  3434     4 
 3420  3423  3421  3422     4 
 3424  3427  3425  3426     4 
 3425  3429  3427  3428     4 
 3429  3431  3430  3432     4 
 3430  3427  3429  3433     4 
 3451  3453  3454  3463     4 
 3453  3456  3454  3455     4 
 3453  3462  3463  3464     4 
 3454  3458  3456  3457     4 
 3456  3459  3458  3462     4 
 3458  3460  3459  3461     4 
 3481  3483  3484  3493     4 
 3483  3486  3484  3485     4 
 3483  3492  3493  3494     4 
 3484  3488  3486  3487     4 
 3486  3489  3488  3492     4 
 3488  3490  3489  3491     4 
 3511  3513  3514  3527     4 
 3513  3516  3514  3515     4 
 3517  3520  3518  3519     4 
 3518  3522  3520  3521     4 
 3522  3524  3523  3525     4 
 3523  3520  3522  3526     4 
 3544  3546  3547  3556     4 
 3546  3549  3547  3548     4 
 3546  3555  3556  3557     4 
 3547  3551  3549  3550     4 
 3549  3552  3551  3555     4 
 3551  3553  3552  3554     4 
 3574  3576  3577  3590     4 
 3576  3579  3577  3578     4 
 3580  3583  3581  3582     4 
 3581  3585  3583  3584     4 
 3585  3587  3586  3588     4 
 3586  3583  3585  3589     4 
 3607  3609  3610  3619     4 
 3609  3612  3610  3611     4 
 3609  3618  3619  3620     4 
 3610  3614  3612  3613     4 
 3612  3615  3614  3618     4 
 3614  3616  3615  3617     4 
 3637  3639  3640  3651     4 
 3639  3642  3640  3641     4 
 3639  3649  3651  3652     4 
 3642  3649  3647  3648     4 
 3643  3642  3640  3647     4 
 3647  3651  3649  3650     4 
 3669  3671  3672  3681     4 
 3671  3674  3672  3673     4 
 3671  3680  3681  3682     4 
 3672  3676  3674  3675     4 
 3674  3677  3676  3680     4 
 3676  3678  3677  3679     4 
 3699  3701  3702  3715     4 
 3701  3704  3702  3703     4 
 3705  3708  3706  3707     4 
 3706  3710  3708  3709     4 
 3710  3712  3711  3713     4 
 3711  3708  3710  3714     4 
 3732  3734  3735  3744     4 
 3734  3737  3735  3736     4 
 3734  3743  3744  3745     4 
 3735  3739  3737  3738     4 
 3737  3740  3739  3743     4 
 3739  3741  3740  3742     4 
 3762  3764  3765  3776     4 
 3764  3767  3765  3766     4 
 3764  3774  3776  3777     4 
 3767  3774  3772  3773     4 
 3768  3767  3765  3772     4 
 3772  3776  3774  3775     4 
 3794  3796  3797  3806     4 
 3796  3799  3797  3798     4 
 3796  3805  3806  3807     4 
 3797  3801  3799  3800     4 
 3799  3802  3801  3805     4 
 3801  3803  3802  3804     4 
 3824  3826  3827  3836     4 
 3826  3829  3827  3828     4 
 3826  3835  3836  3837     4 
 3827  3831  3829  3830     4 
 3829  3832  3831  3835     4 
 3831  3833  3832  3834     4 
 3854  3856  3857  3866     4 
 3856  3859  3857  3858     4 
 3856  3865  3866  3867     4 
 3857  3861  3859  3860     4 
 3859  3862  3861  3865     4 
 3861  3863  3862  3864     4 
 3884  3886  3887  3899     4 
 3886  3889  3887  3888     4 
 3890  3892  3891  3895     4 
 3891  3893  3892  3894     4 
 3895  3898  3896  3897     4 
 3916  3918  3919  3932     4 
 3918  3921  3919  3920     4 
 3922  3925  3923  3924     4 
 3923  3927  3925  3926     4 
 3927  3929  3928  3930     4 
 3928  3925  3927  3931     4 
 3949  3951  3952  3963     4 
 3951  3954  3952  3953     4 
 3951  3961  3963  3964     4 
 3954  3961  3959  3960     4 
 3955  3954  3952  3959     4 
 3959  3963  3961  3962     4 
 3981  3983  3984  3993     4 
 3983  3986  3984  3985     4 
 3983  3992  3993  3994     4 
 3984  3988  3986  3987     4 
 3986  3989  3988  3992     4 
 3988  3990  3989  3991     4 
 4011  4013  4014  4023     4 
 4013  4016  4014  4015     4 
 4013  4022  4023  4024     4 
 4014  4018  4016  4017     4 
 4016  4019  4018  4022     4 
 4018  4020  4019  4021     4 
 4041  4043  4044  4057     4 
 4043  4046  4044  4045     4 
 4047  4050  4048  4049     4 
 4048  4052  4050  4051     4 
 4052  4054  4053  4055     4 
 4053  4050  4052  4056     4 
 4074  4076  4077  4089     4 
 4076  4079  4077  4078     4 
 4080  4082  4081  4085     4 
 4081  4083  4082  4084     4 
 4085  4088  4086  4087     4 
 4106  4108  4109  4121     4 
 4108  4111  4109  4110     4 
 4112  4114  4113  4117     4 
 4113  4115  4114  4116     4 
 4117  4120  4118  4119     4 
 4138  4140  4141  4153     4 
 4140  4143  4141  4142     4 
 4144  4146  4145  4149     4 
 4145  4147  4146  4148     4 
 4149  4152  4150  4151     4 
 4170  4172  4173  4184     4 
 4172  4175  4173  4174     4 
 4172  4182  4184  4185     4 
 4175  4182  4180  4181     4 
 4176  4175  4173  4180     4 
 4180  4184  4182  4183     4 
 4202  4204  4205  4218     4 
 4204  4207  4205  4206     4 
 4208  4211  4209  4210     4 
 4209  4213  4211  4212     4 
 4213  4215  4214  4216     4 
 4214  4211  4213  4217     4 
 4235  4237  4238  4251     4 
 4237  4240  4238  4239     4 
 4241  4244  4242  4243     4 
 4242  4246  4244  4245     4 
 4246  4248  4247  4249     4 
 4247  4244  4246  4250     4 
 4268  4270  4271  4280     4 
 4270  4273  4271  4272     4 
 4270  4279  4280  4281     4 
 4271  4275  4273  4274     4 
 4273  4276  4275  4279     4 
 4275  4277  4276  4278     4 
 4298  4300  4301  4314     4 
 4300  4303  4301  4302     4 
 4304  4307  4305  4306     4 
 4305  4309  4307  4308     4 
 4309  4311  4310  4312     4 
 4310  4307  4309  4313     4 
 4331  4333  4334  4347     4 
 4333  4336  4334  4335     4 
 4337  4340  4338  4339     4 
 4338  4342  4340  4341     4 
 4342  4344  4343  4345     4 
 4343  4340  4342  4346     4 
 4364  4366  4367  4380     4 
 4366  4369  4367  4368     4 
 4370  4373  4371  4372     4 
 4371  4375  4373  4374     4 
 4375  4377  4376  4378     4 
 4376  4373  4375  4379     4 
 4397  4399  4400  4413     4 
 4399  4402  4400  4401     4 
 4403  4406  4404  4405     4 
 4404  4408  4406  4407     4 
 4408  4410  4409  4411     4 
 4409  4406  4408  4412     4 
 4430  4432  4433  4446     4 
 4432  4435  4433  4434     4 
 4436  4439  4437  4438     4 
 4437  4441  4439  4440     4 
 4441  4443  4442  4444     4 
 4442  4439  4441  4445     4 
 4463  4465  4466  4475     4 
 4465  4468  4466  4467     4 
 4465  4474  4475  4476     4 
 4466  4470  4468  4469     4 
 4468  4471  4470  4474     4 
 4470  4472  4471  4473     4 
 4493  4495  4496  4505     4 
 4495  4498  4496  4497     4 
 4495  4504  4505  4506     4 
 4496  4500  4498  4499     4 
 4498  4501  4500  4504     4 
 4500  4502  4501  4503     4 
 4523  4525  4526  4539     4 
 4525  4528  4526  4527     4 
 4529  4532  4530  4531     4 
 4530  4534  4532  4533     4 
 4534  4536  4535  4537     4 
 4535  4532  4534  4538     4 
 4556  4558  4559  4572     4 
 4558  4561  4559  4560     4 
 4562  4565  4563  4564     4 
 4563  4567  4565  4566     4 
 4567  4569  4568  4570     4 
 4568  4565  4567  4571     4 
 4589  4591  4592  4605     4 
 4591  4594  4592  4593     4 
 4595  4598  4596  4597     4 
 4596  4600  4598  4599     4 
 4600  4602  4601  4603     4 
 4601  4598  4600  4604     4 

; Include Position restraint file
#ifdef POSRES
#include "posre_DNA_chain_B.itp"
#endif

